Title: // Generated for: spectre
Date: 10:58:40 AM, Sat Feb 15, 2014
Plotname: Transient Analysis `TimeDennis': time = (0 s -> 500 ns)
Flags: real
No. Variables:       10
No. Points:     1858
Variables:	0	time	s
		1	R4:1	A plot=0 grid=0
		2	R4:pwr	W plot=0 grid=0
		3	vout	V plot=0 grid=0
		4	vinc	V plot=0 grid=0
		5	vinb	V plot=0 grid=0
		6	clk	V plot=0 grid=0
		7	V2:p	A plot=0 grid=0
		8	V10:p	A plot=0 grid=0
		9	V11:p	A plot=0 grid=0
Values:
 0	0	6.6001459434461e-07	4.3561926474788e-10
	0.00066001459434461	0.4	0.4
	0	0	-2.23302055560522e-07
	-1.5534963908874e-06
 1	3.90625e-14	6.62054821430676e-07	4.38316586579605e-10
	0.000662054821430676	0.4	0.4
	0.0015625	-0.00189564651185373	3.35469337115427e-05
	0.000267975149069838
 2	1.171875e-13	6.65905872424414e-07	4.4343063092932e-10
	0.000665905872424414	0.4	0.4
	0.0046875	-0.00216145591786851	9.56538847790079e-05
	0.000394894270734704
 3	2.734375e-13	6.73169479942247e-07	4.53157148725715e-10
	0.000673169479942247	0.4	0.4
	0.0109375	-0.0026480647176072	0.000207824649898993
	0.000625539554070901
 4	5.64505208630536e-13	6.84785693828394e-07	4.68931446472035e-10
	0.000684785693828394	0.4	0.4
	0.0225802083452214	-0.00342082299536299	0.000376712217669419
	0.000974620159715241
 5	1.11998633681813e-12	7.01841673946263e-07	4.92581735287693e-10
	0.000701841673946263	0.4	0.4
	0.0447994534727252	-0.00442488980287623	0.000604618006147184
	0.00144831075069712
 6	1.80054815066451e-12	7.16766988038169e-07	5.13754915141309e-10
	0.000716766988038169	0.4	0.4
	0.0720219260265806	-0.00526424999832892	0.000772952715546118
	0.00179196486810161
 7	2.58943321405304e-12	7.29358769615118e-07	5.31964214814478e-10
	0.000729358769615118	0.4	0.4
	0.103577328562122	-0.00612630886205297	0.000878946648943474
	0.00197839982650898
 8	3.51241300805773e-12	7.40497466897036e-07	5.48336498480926e-10
	0.000740497466897036	0.4	0.4
	0.140496520322309	-0.0075545732323569	0.000904746839603745
	0.00195415599844239
 9	4.81097664310956e-12	7.52287829188887e-07	5.65936977945727e-10
	0.000752287829188887	0.4	0.4
	0.192439065724383	-0.0105333850414628	0.000786555211000882
	0.00150822397113299
 10	6.13004138129824e-12	7.4961104955204e-07	5.61916725610511e-10
	0.00074961104955204	0.4	0.4
	0.24520165525193	-0.0148519311748114	0.000484199241471196
	0.000825592616751357
 11	7.45686285394659e-12	7.06455497766997e-07	4.99079370325215e-10
	0.000706455497766997	0.4	0.4
	0.298274514157864	-0.020307610096671	6.54431018388548e-05
	-6.15598053021708e-05
 12	7.76479153995116e-12	6.841151418072e-07	4.68013527249886e-10
	0.0006841151418072	0.4	0.4
	0.310591661598047	-0.0212868342781838	-3.54703757827474e-05
	-0.000398379352860405
 13	7.91875588295345e-12	6.6827763455465e-07	4.46594996845959e-10
	0.00066827763455465	0.4	0.4
	0.316750235318138	-0.0217596208031553	-5.93742639453081e-05
	-0.000546535164103767
 14	8.11156214255598e-12	6.37103831698441e-07	4.05901292364836e-10
	0.000637103831698441	0.4	0.4
	0.324462485702239	-0.0213134238052763	-8.66217319207364e-05
	-0.000892520706657182
 15	8.22904597078144e-12	6.00963534820032e-07	3.61157170183387e-10
	0.000600963534820032	0.4	0.4
	0.329161838831258	-0.0188881827798482	-6.78598984094553e-05
	-0.00139079356658184
 16	8.3706974520607e-12	5.14479422912087e-07	2.64689076599954e-10
	0.000514479422912087	0.4	0.4
	0.334827898082428	-0.0131028021155099	-1.04970893744427e-05
	-0.00232817986296848
 17	8.47950084103491e-12	4.47276880004019e-07	2.0005660738613e-10
	0.000447276880004019	0.4	0.4
	0.339180033641396	-0.0180096785719493	2.52514082052811e-05
	-0.00202955046694421
 18	8.56086679396768e-12	4.0307571343245e-07	1.62470030759078e-10
	0.00040307571343245	0.4	0.4
	0.342434671758707	-0.0136485312444958	2.21850941043511e-05
	-0.00330461997829304
 19	8.66276035595776e-12	3.47876761644789e-07	1.21018241292465e-10
	0.000347876761644789	0.4	0.4
	0.34651041423831	-0.0158717854034388	4.47135909255137e-05
	-0.00343900224706087
 20	8.79687338070176e-12	2.70849694806462e-07	7.33595571767534e-11
	0.000270849694806462	0.4	0.4
	0.351874935228071	-0.00953065269531785	4.09728325246383e-05
	-0.00519523191219771
 21	8.96827248747622e-12	1.7322995706083e-07	3.0008618023297e-11
	0.00017322995706083	0.4	0.4
	0.358730899499049	-0.0112865248230969	6.1950791797776e-05
	-0.00573430805706738
 22	9.14869141092398e-12	8.12456605360696e-08	6.60085735594225e-12
	8.12456605360696e-05	0.4	0.4
	0.365947656436959	-0.00599374826437262	5.45475609536022e-05
	-0.00753896477079649
 23	9.34691051763124e-12	-3.3968188790187e-09	1.15383784968579e-14
	-3.3968188790187e-06	0.4	0.4
	0.37387642070525	-0.00882451320832064	7.06035957882363e-05
	-0.0078848856447652
 24	9.59333200877957e-12	-8.40363606538239e-08	7.06210991193956e-12
	-8.40363606538239e-05	0.4	0.4
	0.383733280351183	-0.00405190311020447	6.08866776855639e-05
	-0.00982553970168001
 25	9.79666600438978e-12	-1.29341265881083e-07	1.67291630597211e-11
	-0.000129341265881083	0.4	0.4
	0.391866640175591	-0.00748869747143297	7.54913376448262e-05
	-0.0102717190193121
 26	1e-11	-1.47093189808496e-07	2.16364064880381e-11
	-0.000147093189808496	0.4	0.4
	0.4	-0.00296574718415141	6.46505141729386e-05
	-0.0122220676140779
 27	1.01599822283807e-11	-1.49722446281501e-07	2.24168109205169e-11
	-0.000149722446281501	0.4	0.4
	0.4	-0.00208457944078853	-1.84339907865828e-07
	-0.0134080422627361
 28	1.03421633517651e-11	-1.36660243918603e-07	1.8676022267892e-11
	-0.000136660243918603	0.4	0.4
	0.4	-0.00158299127345818	-1.86149927791239e-07
	-0.0150611300829554
 29	1.05220487462682e-11	-9.11702559957485e-08	8.31201557833031e-12
	-9.11702559957485e-05	0.4	0.4
	0.4	-0.0012452184146924	-1.87770102769345e-07
	-0.0167317089927599
 30	1.08818195352744e-11	9.30093341410954e-08	8.65073623736994e-12
	9.30093341410954e-05	0.4	0.4
	0.4	-0.000621929234713056	-1.9075684885771e-07
	-0.0200305876297031
 31	1.13675732393614e-11	5.18495955529182e-07	2.6883805590012e-10
	0.000518495955529182	0.4	0.4
	0.4	-0.000168465302230296	-1.94577429994607e-07
	-0.0242276098335391
 32	1.20498248755641e-11	1.39110240183915e-06	1.93516589240266e-09
	0.00139110240183915	0.4	0.4
	0.4	0.000363330788159119	-1.99771994210464e-07
	-0.0294398807517836
 33	1.28081893182614e-11	2.67368866995882e-06	7.14861110386619e-09
	0.00267368866995882	0.4	0.4
	0.4	0.000762037990369697	-2.05541942827653e-07
	-0.0351137066555809
 34	1.34578483810198e-11	3.89932404648435e-06	1.52047280194911e-08
	0.00389932404648435	0.4	0.4
	0.4	0.00124009050593312	-2.07703789860432e-07
	-0.0373465458427697
 35	1.40275704767523e-11	4.97836810009614e-06	2.47841489400549e-08
	0.00497836810009614	0.4	0.4
	0.4	0.000570550935989698	-2.08289236266025e-07
	-0.0380001281754123
 36	1.4741914323397e-11	6.31332611761121e-06	3.98580866673119e-08
	0.00631332611761121	0.4	0.4
	0.4	0.000635308016775143	-2.08862448820445e-07
	-0.0382972352846129
 37	1.54554743550221e-11	7.63977839636328e-06	5.83662139455391e-08
	0.00763977839636328	0.4	0.4
	0.4	4.36260339976013e-05	-2.09501873667656e-07
	-0.0386517974902276
 38	1.63286077547704e-11	9.26712424282276e-06	8.58795917319133e-08
	0.00926712424282276	0.4	0.4
	0.4	0.000324543703842161	-2.10290345397879e-07
	-0.0388743733882332
 39	1.74491110597856e-11	1.13702802120208e-05	1.29283272099872e-07
	0.0113702802120208	0.4	0.4
	0.4	-0.000152962487492141	-2.11252103772526e-07
	-0.0392102088475078
 40	1.8884915222105e-11	1.40881899521552e-05	1.98477096128006e-07
	0.0140881899521552	0.4	0.4
	0.4	0.000202346568469332	-2.12392522150682e-07
	-0.0393255290906744
 41	2.08326321042461e-11	1.77999638106725e-05	3.1683871166125e-07
	0.0177999638106725	0.4	0.4
	0.4	-0.000238620186453645	-2.13797075838021e-07
	-0.0394116718288658
 42	2.34716803088744e-11	2.28394068909635e-05	5.21638507130989e-07
	0.0228394068909635	0.4	0.4
	0.4	0.000138565512277368	-2.15428179076225e-07
	-0.0391100193681601
 43	2.69583000791895e-11	2.94613565596186e-05	8.67971530332982e-07
	0.0294613565596186	0.4	0.4
	0.4	-0.000274643378541246	-2.1712245370799e-07
	-0.0386249703438866
 44	3.10936826755318e-11	3.72012933035525e-05	1.38393622345694e-06
	0.0372012933035525	0.4	0.4
	0.4	0.000123603592340806	-2.18568923032253e-07
	-0.0377036001018165
 45	3.65137959608025e-11	4.70856811195115e-05	2.21706136648832e-06
	0.0470856811195115	0.4	0.4
	0.4	-0.000271320825643803	-2.19771177009983e-07
	-0.0365206260310611
 46	4.31442243157991e-11	5.87483394948952e-05	3.45136739340747e-06
	0.0587483394948952	0.4	0.4
	0.4	0.000152874958679039	-2.20370289411578e-07
	-0.0350686005696399
 47	5.07075273268594e-11	7.14580632402876e-05	5.10625480205294e-06
	0.0714580632402876	0.4	0.4
	0.4	-0.000264181416343769	-2.20792223821199e-07
	-0.0334238220227141
 48	5.97812774076329e-11	8.58465893336448e-05	7.36963690021946e-06
	0.0858465893336448	0.4	0.4
	0.4	0.000159925004602402	-2.21112026063856e-07
	-0.0313927994646785
 49	7.64465409680778e-11	0.000109852111539595	1.20674864097076e-05
	0.109852111539595	0.4	0.4
	0.4	-0.000254990077288735	-2.21529995741783e-07
	-0.0278151437151384
 50	9.97860508483738e-11	0.000138530380522014	1.91906663275741e-05
	0.138530380522014	0.4	0.4
	0.4	0.000175305219850215	-2.21861289633829e-07
	-0.0232718194559989
 51	1.27276947729962e-10	0.000165839398328899	2.75027060380911e-05
	0.165839398328899	0.4	0.4
	0.4	-0.000239479820580121	-2.22154383573703e-07
	-0.0188623128968945
 52	1.67728678124514e-10	0.000196073016123327	3.84446276516983e-05
	0.196073016123327	0.4	0.4
	0.4	0.000190822077442351	-2.22481953684824e-07
	-0.0139852867016533
 53	2.11962246310244e-10	0.000219180876666826	4.80402566964385e-05
	0.219180876666826	0.4	0.4
	0.4	-0.000226009675824941	-2.22711062984867e-07
	-0.0103760892533593
 54	2.6348337616694e-10	0.000237485950742429	5.63995768000355e-05
	0.237485950742429	0.4	0.4
	0.4	0.000200246302214374	-2.2288629928306e-07
	-0.00758557552711911
 55	3.19474569041556e-10	0.000250687181794273	6.28440631159548e-05
	0.250687181794273	0.4	0.4
	0.4	-0.0002189878116068	-2.23019562826768e-07
	-0.00566055194892516
 56	3.85004187761292e-10	0.000260720304050674	6.79750769442757e-05
	0.260720304050674	0.4	0.4
	0.4	0.000204609350765337	-2.23114416711875e-07
	-0.00414657566853863
 57	4.62820814777694e-10	0.000268095943506979	7.18754349248974e-05
	0.268095943506979	0.4	0.4
	0.4	-0.000214899769983013	-2.23178225128137e-07
	-0.00305821174150253
 58	5.57794751467964e-10	0.000273226863241053	7.46529187965452e-05
	0.273226863241053	0.4	0.4
	0.4	0.000207220831992637	-2.23238518362926e-07
	-0.00217029173708873
 59	6.75656047128453e-10	0.000276317260027548	7.63512281891317e-05
	0.276317260027548	0.4	0.4
	0.4	-0.000212455194243683	-2.23255298829019e-07
	-0.00156373722186162
 60	8.19892690291781e-10	0.000277443460789968	7.69748739351145e-05
	0.277443460789968	0.4	0.4
	0.4	0.000208774097786557	-2.23289380999632e-07
	-0.0010623627256146
 61	1.01070195106463e-09	0.00027668725949289	7.65558395656858e-05
	0.27668725949289	0.4	0.4
	0.4	-0.000211004500645444	-2.23283550033306e-07
	-0.000750507174319487
 62	1.25034716832904e-09	0.000273985723013027	7.5068176414971e-05
	0.273985723013027	0.4	0.4
	0.4	0.000209561062317957	-2.23304844963839e-07
	-0.000476802043010498
 63	1.56345667809592e-09	0.000269130708985858	7.24313385192305e-05
	0.269130708985858	0.4	0.4
	0.4	-0.000210300660989419	-2.23290365043874e-07
	-0.00034640013197739
 64	1.94192167750136e-09	0.000262368557934746	6.88372601927579e-05
	0.262368557934746	0.4	0.4
	0.4	0.000209808649612103	-2.23309476767858e-07
	-0.000206056196754166
 65	2.45730532105052e-09	0.000252491198464479	6.37518053020291e-05
	0.252491198464479	0.4	0.4
	0.4	-0.000209991090929958	-2.23292287102873e-07
	-0.000165145748047058
 66	3.04414445003651e-09	0.000240900014289846	5.80328168848482e-05
	0.240900014289846	0.4	0.4
	0.4	0.000209845065280787	-2.23310182513508e-07
	-8.38593455628546e-05
 67	3.91104894122448e-09	0.000223822291234887	5.00964180536347e-05
	0.223822291234887	0.4	0.4
	0.4	-0.000209877703252557	-2.23292900146235e-07
	-8.12308524164059e-05
 68	4.9056934295035e-09	0.000204916781713212	4.19908874277001e-05
	0.204916781713212	0.4	0.4
	0.4	0.000209833164189723	-2.2330990184966e-07
	-2.56881714838968e-05
 69	6.51318633911634e-09	0.000176846859648356	3.12748117674852e-05
	0.176846859648356	0.4	0.4
	0.4	-0.000209832875948222	-2.23293727184221e-07
	-4.36866900872255e-05
 70	8.29433667480422e-09	0.000149645028318858	2.23936345005518e-05
	0.149645028318858	0.4	0.4
	0.4	0.000209817262348465	-2.23310048086556e-07
	-5.16158415431491e-07
 71	1.12647781979419e-08	0.000112767758190419	1.27165672872928e-05
	0.112767758190419	0.4	0.4
	0.4	-0.000209813241078986	-2.23293882650692e-07
	-2.90221991884639e-05
 72	1.39657224323043e-08	8.71157260950257e-05	7.58914973306354e-06
	0.0871157260950257	0.4	0.4
	0.4	0.000209805499979874	-2.23309992157381e-07
	8.20348642238432e-06
 73	1.66666666666667e-08	6.73344296289948e-05	4.53392541346206e-06
	0.0673344296289948	0.4	0.4
	0.4	-0.000209799385525011	-2.2329397485171e-07
	-2.49762714730979e-05
 74	1.66691666666667e-08	6.7298148151129e-05	4.5290407445713e-06
	0.067298148151129	0.4	0.4
	0.300000000000019	0.00309552747407764	-0.000321366912111241
	-0.00110623317855202
 75	1.66718045976597e-08	6.73371806051449e-05	4.5342958918499e-06
	0.0673371806051449	0.4	0.4
	0.194482760277218	0.00574706679519899	-0.00275200369370355
	-0.0045962739790042
 76	1.66724123562856e-08	6.73716320642938e-05	4.53893680700658e-06
	0.0673716320642938	0.4	0.4
	0.170172415242542	0.00638934967186432	-0.00377161442153175
	-0.00598357977016929
 77	1.66726621928048e-08	6.73923080414646e-05	4.54172318315566e-06
	0.0673923080414646	0.4	0.4
	0.160178954475718	0.00665306752540846	-0.00417329787138731
	-0.00648991977399653
 78	1.66729554757846e-08	6.7429988929604e-05	4.54680340704652e-06
	0.067429988929604	0.4	0.4
	0.148447635283378	0.00668101030504295	-0.00476533711912548
	-0.0071456839326595
 79	1.66732531938926e-08	6.74779214746598e-05	4.55326988654035e-06
	0.0674779214746598	0.4	0.4
	0.136538910964438	0.00774378912738239	-0.00530302726221827
	-0.00767074942481561
 80	1.66734221706997e-08	6.74956430577662e-05	4.55566183178138e-06
	0.0674956430577662	0.4	0.4
	0.129779838679618	0.0106774252786214	-0.00567458709530965
	-0.008531181904534
 81	1.66735978849672e-08	6.75079719106355e-05	4.55732627148715e-06
	0.0675079719106355	0.4	0.4
	0.122751267980261	0.0106952246611152	-0.0059857458156715
	-0.00885899043072877
 82	1.66739363749212e-08	6.75225535010351e-05	4.55929523130014e-06
	0.0675225535010351	0.4	0.4
	0.109211669820617	0.0141070961730656	-0.0066831445777382
	-0.0101150968809894
 83	1.66741932574436e-08	6.75295974048582e-05	4.56024652566223e-06
	0.0675295974048582	0.4	0.4
	0.0989363689245208	0.013845798675485	-0.00713317099503156
	-0.0104087054790655
 84	1.66745368061155e-08	6.75368394516352e-05	4.56122468311595e-06
	0.0675368394516352	0.4	0.4
	0.0851944220448886	0.0161964734978318	-0.00779444412321482
	-0.0110048731038895
 85	1.66750147024461e-08	6.75470417241802e-05	4.56260284568815e-06
	0.0675470417241802	0.4	0.4
	0.0660785688223918	0.0151580132716419	-0.00850322346501338
	-0.0106631771245984
 86	1.66756051819733e-08	6.75682520176448e-05	4.56546868071997e-06
	0.0675682520176448	0.4	0.4
	0.0424593877353817	0.0162529557812632	-0.00918679500280753
	-0.0107030579165839
 87	1.667613592432e-08	6.76043002403152e-05	4.57034141098268e-06
	0.0676043002403152	0.4	0.4
	0.0212296938676626	0.0140011934080134	-0.00944544148027152
	-0.0102064241563861
 88	1.66766666666667e-08	6.76662271398445e-05	4.57871829534103e-06
	0.0676662271398445	0.4	0.4
	0	0.0144321761126105	-0.00966103853557622
	-0.0103900636133927
 89	1.6676937116542e-08	6.77239512132443e-05	4.5865335679339e-06
	0.0677239512132443	0.4	0.4
	0	0.00903523061169041	-0.00923620093891059
	-0.00847179576955765
 90	1.66772620756722e-08	6.78007408736694e-05	4.59694046301847e-06
	0.0678007408736694	0.4	0.4
	0	0.00654500639118075	-0.00877202808303161
	-0.00765005408721456
 91	1.66775693550167e-08	6.78894599507168e-05	4.60897877239998e-06
	0.0678894599507168	0.4	0.4
	0	0.00492134844373714	-0.00843294147805473
	-0.00755605361852407
 92	1.66781707316981e-08	6.81198649369066e-05	4.6403159990224e-06
	0.0681198649369066	0.4	0.4
	0	0.00241390040080213	-0.00789729570009843
	-0.00775663287199512
 93	1.6678768723322e-08	6.84281488800343e-05	4.68241155914813e-06
	0.0684281488800342	0.4	0.4
	0	0.00122218761167563	-0.00748367360695825
	-0.00909628107824558
 94	1.66794984577468e-08	6.89045505343963e-05	4.74783708434717e-06
	0.0689045505343963	0.4	0.4
	0	0.000235597629556731	-0.00697700309406414
	-0.0108881744833625
 95	1.66803591464849e-08	6.95826607074253e-05	4.84174667112467e-06
	0.0695826607074253	0.4	0.4
	0	-0.000138416410988833	-0.00639899460768992
	-0.0134816487856266
 96	1.66814465091327e-08	7.05807199186416e-05	4.98163802423372e-06
	0.0705807199186416	0.4	0.4
	0	-0.000480027318787754	-0.00565849631163683
	-0.0164962877789944
 97	1.66827639614892e-08	7.19707667360047e-05	5.17979126456841e-06
	0.0719707667360047	0.4	0.4
	0	-0.000547296224217743	-0.00482252991154535
	-0.0203366571409314
 98	1.66843711735857e-08	7.3987973391885e-05	5.47422020663828e-06
	0.073987973391885	0.4	0.4
	0	-0.00110366458418262	-0.00364089167610689
	-0.0258791124858087
 99	1.66856174093263e-08	7.59036895006368e-05	5.76137007980907e-06
	0.0759036895006368	0.4	0.4
	0	-0.00161071424518284	-0.0024217332520366
	-0.0321285200406549
 100	1.66863463333891e-08	7.71818220750435e-05	5.95703365882367e-06
	0.0771818220750435	0.4	0.4
	0	-0.00173205956529663	-0.00197917601038506
	-0.0341090672415373
 101	1.66870993335387e-08	7.8556265094011e-05	6.17108678552054e-06
	0.078556265094011	0.4	0.4
	0	-0.000894481850589531	-0.00165480583510308
	-0.0357220113042867
 102	1.66883309590983e-08	8.0853256005651e-05	6.53724900671533e-06
	0.080853256005651	0.4	0.4
	0	-0.00065599870886016	-0.00124647688976769
	-0.0367711127650864
 103	1.66894375247375e-08	8.29367083988373e-05	6.87849760003377e-06
	0.0829367083988373	0.4	0.4
	0	9.6315883783343e-05	-0.000978616968393286
	-0.0374509797250586
 104	1.66911258473106e-08	8.61115469859276e-05	7.41519852430961e-06
	0.0861115469859276	0.4	0.4
	0	-5.32394137906711e-05	-0.000679942383096892
	-0.0374670647203294
 105	1.66926880627085e-08	8.90344435687331e-05	7.92713214159391e-06
	0.0890344435687331	0.4	0.4
	0	0.000473161658086824	-0.000504171443928961
	-0.0376048518963818
 106	1.66951578539404e-08	9.36115605035321e-05	8.76312425990645e-06
	0.0936115605035321	0.4	0.4
	0	7.76898079802748e-05	-0.000315782636451073
	-0.0370638139410278
 107	1.6697861108176e-08	9.85525863580478e-05	9.71261227786047e-06
	0.0985525863580478	0.4	0.4
	0	0.000454711490208994	-0.000215366065781078
	-0.0367916486721708
 108	1.67016346079722e-08	0.000105325116667287	1.10933802009777e-05
	0.105325116667287	0.4	0.4
	0	1.19236537500346e-05	-0.000132305596616663
	-0.0358879074798006
 109	1.67067573401857e-08	0.00011427016036229	1.30576695492235e-05
	0.11427016036229	0.4	0.4
	0	0.000430651073496535	-9.19229824033736e-05
	-0.0349708936771056
 110	1.67132102976237e-08	0.000125099158855585	1.56497995463749e-05
	0.125099158855585	0.4	0.4
	0	-1.50301214260108e-05	-6.16202694111978e-05
	-0.0333199702756308
 111	1.67228965262765e-08	0.000140416476165245	1.97167867786649e-05
	0.140416476165245	0.4	0.4
	0	0.000397054994089776	-5.57107277943204e-05
	-0.0312922374846049
 112	1.67361494340445e-08	0.000159582766264548	2.54666592886454e-05
	0.159582766264548	0.4	0.4
	0	-5.61301040072526e-05	-4.28096276497167e-05
	-0.0281861184283168
 113	1.67570465261851e-08	0.000185899536202625	3.45586375603511e-05
	0.185899536202625	0.4	0.4
	0	0.000347175137631295	-4.18553510183494e-05
	-0.0241850482374448
 114	1.6792863475971e-08	0.000221542303910256	4.9080992421864e-05
	0.221542303910256	0.4	0.4
	0	-0.000116899059759144	-2.46581740103918e-05
	-0.0181797289043291
 115	1.68358088449431e-08	0.000252028108160335	6.35181673028777e-05
	0.252028108160335	0.4	0.4
	0	0.000285087483241733	-2.30445070474942e-05
	-0.0134349120714234
 116	1.68860424834978e-08	0.000276095443027396	7.62286936604938e-05
	0.276095443027396	0.4	0.4
	0	-0.000165373041973097	-1.07504032870686e-05
	-0.00946519172221409
 117	1.69391811979632e-08	0.000292804308695853	8.57343631908561e-05
	0.292804308695853	0.4	0.4
	0	0.000248034103856912	-1.35044857656244e-05
	-0.00710827778335749
 118	1.69996030485101e-08	0.000305167979906207	9.31274959600354e-05
	0.305167979906207	0.4	0.4
	0	-0.00019171891503023	-4.51635098305878e-06
	-0.00505226470556219
 119	1.70699810889865e-08	0.000314197424289426	9.87200214301094e-05
	0.314197424289426	0.4	0.4
	0	0.000229877484712027	-8.80953546645826e-06
	-0.00386717414987843
 120	1.71561095576061e-08	0.000320667588378361	0.000102827702236394
	0.320667588378361	0.4	0.4
	0	-0.000206586395510498	-1.14475796936363e-06
	-0.00260620255905306
 121	1.72619490141583e-08	0.000324750057383103	0.000105462599770329
	0.324750057383103	0.4	0.4
	0	0.000220896709440029	-6.06577320978755e-06
	-0.00202037415447229
 122	1.73940918987899e-08	0.000326621534638726	0.000106681626889756
	0.326621534638726	0.4	0.4
	0	-0.000213111297655603	1.03346349961722e-06
	-0.00123152703706868
 123	1.75641271062537e-08	0.000326341639287398	0.000106498865532786
	0.326341639287398	0.4	0.4
	0	0.000217290228832138	-4.49509158779934e-06
	-0.0010097341847818
 124	1.7785276566626e-08	0.000323799322053555	0.000104846000962342
	0.323799322053555	0.4	0.4
	0	-0.000215360469134662	2.23073714091963e-06
	-0.000503434940738998
 125	1.80803464893381e-08	0.000318662445430059	0.000101545754127465
	0.318662445430059	0.4	0.4
	0	0.000216411258817879	-3.71654885900903e-06
	-0.000496428334266032
 126	1.84613346918724e-08	0.000310737252855597	9.65576403122435e-05
	0.310737252855597	0.4	0.4
	0	-0.000215994495237017	2.72675124195313e-06
	-0.000155646357099537
 127	1.89571282101123e-08	0.000299484143388613	8.96907521412112e-05
	0.299484143388613	0.4	0.4
	0	0.000216330998632944	-3.46260438992632e-06
	-0.000266944960484481
 128	1.95909633674147e-08	0.000284558548870574	8.09735677353268e-05
	0.284558548870574	0.4	0.4
	0	-0.000216204045976937	2.9002745503477e-06
	-5.85249840704055e-06
 129	2.04115145808335e-08	0.000265225687859878	7.03446655007453e-05
	0.265225687859878	0.4	0.4
	0	0.000216346231142126	-3.41466196858683e-06
	-0.000168913741106134
 130	2.16083463019717e-08	0.000238183104157928	5.67311911063065e-05
	0.238183104157928	0.4	0.4
	0	-0.000216312310791182	2.94820592668334e-06
	6.0287374261398e-05
 131	2.30960267200297e-08	0.000207483715465316	4.30494921832921e-05
	0.207483715465316	0.4	0.4
	0	0.000216357784857658	-3.40975650596138e-06
	-0.000127641092629282
 132	2.54278881218503e-08	0.000166379667132466	2.76821936351103e-05
	0.166379667132466	0.4	0.4
	0	-0.00021635740219183	2.96151015109273e-06
	8.47828528770174e-05
 133	2.83945964995873e-08	0.000125152740105161	1.56632083558299e-05
	0.125152740105161	0.4	0.4
	0	0.000216372336014342	-3.41230826680456e-06
	-0.000111870003105719
 134	3.08639649164603e-08	9.87322255884259e-05	9.74805236964382e-06
	0.0987322255884259	0.4	0.4
	0	-0.000216381372845171	2.96762113876873e-06
	9.22684567517363e-05
 135	3.33333333333333e-08	7.79419866691465e-05	6.0749532859334e-06
	0.0779419866691465	0.4	0.4
	0	0.000216394072834054	-3.41739542645696e-06
	-0.000108697986521768
 136	3.33333723958333e-08	7.79436479794039e-05	6.07521226033723e-06
	0.0779436479794039	0.4	0.4
	0.00156249999984461	-0.00189805575559518	3.35915974012495e-05
	0.000288698549220729
 137	3.33334505208333e-08	7.79468573871263e-05	6.07571257652901e-06
	0.0779468573871263	0.4	0.4
	0.00468749999953382	-0.00216739864187965	9.70461060859361e-05
	0.000417433013770621
 138	3.33336067708333e-08	7.79526492233219e-05	6.07661552093427e-06
	0.0779526492233219	0.4	0.4
	0.0109374999989123	-0.00266115125147044	0.000208559992938599
	0.000643466806691596
 139	3.33339192708333e-08	7.79622174139648e-05	6.07810734410232e-06
	0.0779622174139648	0.4	0.4
	0.0234374999976691	-0.00347499117111067	0.000388180760279689
	0.00101435567798016
 140	3.33345442708332e-08	7.79758763328408e-05	6.08023728987448e-06
	0.0779758763328408	0.4	0.4
	0.0484374999951828	-0.00456611852283087	0.000632236996152882
	0.00150641035860531
 141	3.33352949220652e-08	7.79878113992375e-05	6.08209872684303e-06
	0.0779878113992375	0.4	0.4
	0.0784635492727234	-0.00546706890231184	0.000804188838567859
	0.00180861556614378
 142	3.33361661694359e-08	7.80030507150035e-05	6.08447592084741e-06
	0.0780030507150035	0.4	0.4
	0.113313444101035	-0.00653783214676104	0.000894788131603237
	0.00188764767068164
 143	3.33371839944781e-08	7.80283396058628e-05	6.08842178164786e-06
	0.0780283396058628	0.4	0.4
	0.154026445790692	-0.00834349455204972	0.000896335582748293
	0.00161829045868576
 144	3.33387068267146e-08	7.80724140541033e-05	6.09530183623535e-06
	0.0780724140541033	0.4	0.4
	0.214939735252599	-0.0124220176541286	0.000684385847643743
	0.000907872582849312
 145	3.33400711802611e-08	7.80832830598953e-05	6.09699909341173e-06
	0.0780832830598953	0.4	0.4
	0.269513877109203	-0.0173870815684898	0.000322878615891373
	0.00017515184113634
 146	3.33407675519247e-08	7.80624896092038e-05	6.09375228398705e-06
	0.0780624896092038	0.4	0.4
	0.297368743654327	-0.020209491245159	7.48028701836233e-05
	-0.000287718506182176
 147	3.3341070273353e-08	7.8042713498182e-05	6.09066513015932e-06
	0.078042713498182	0.4	0.4
	0.309477600785054	-0.021247441040681	-1.6952384024788e-05
	-0.000553526789801176
 148	3.33412216340671e-08	7.80278982337969e-05	6.08835290278377e-06
	0.0780278982337969	0.4	0.4
	0.315532029350417	-0.0215870277793334	-5.73595101403847e-05
	-0.000709042215394212
 149	3.33414191955045e-08	7.79962156843275e-05	6.08340966107613e-06
	0.0779962156843275	0.4	0.4
	0.323434486848235	-0.0212174031750894	-8.12517520618727e-05
	-0.00100900657211937
 150	3.33415417968488e-08	7.79564457023442e-05	6.07720742654254e-06
	0.0779564457023442	0.4	0.4
	0.328338540620377	-0.0182491470156923	-8.54156753509942e-05
	-0.00160246899643914
 151	3.33416823003218e-08	7.7870782357446e-05	6.06385874496073e-06
	0.077870782357446	0.4	0.4
	0.33395867953802	-0.0132154583332382	-9.90715580318876e-06
	-0.00237382807110267
 152	3.33417644316697e-08	7.78222204806715e-05	6.05629800054224e-06
	0.0778222204806715	0.4	0.4
	0.337243933455474	-0.0181402946042978	9.70816105057015e-06
	-0.00183173734671553
 153	3.33418464691287e-08	7.77811675632027e-05	6.04991002749501e-06
	0.0777811675632027	0.4	0.4
	0.340525431814922	-0.0142542731122788	2.42429109773677e-05
	-0.00300796797499998
 154	3.33419536181144e-08	7.77343208913851e-05	6.04262464444482e-06
	0.0777343208913851	0.4	0.4
	0.344811391244568	-0.017058581536008	3.38250107301284e-05
	-0.00314953046068711
 155	3.33420945366698e-08	7.76781289319478e-05	6.03389171436831e-06
	0.0776781289319478	0.4	0.4
	0.350448133458786	-0.0108419576449516	4.54275297970106e-05
	-0.00501758157459098
 156	3.33422749735687e-08	7.76108160192481e-05	6.02343876317358e-06
	0.0776108160192481	0.4	0.4
	0.357665609415468	-0.0120766509851543	5.40851825202113e-05
	-0.00566481160626585
 157	3.33424871150888e-08	7.75400976597163e-05	6.01246674507835e-06
	0.0775400976597163	0.4	0.4
	0.366151270216649	-0.00600369591908027	6.13685367661515e-05
	-0.00763713360862354
 158	3.33427123672331e-08	7.74821993897488e-05	6.00349122227279e-06
	0.0774821993897488	0.4	0.4
	0.375161355988919	-0.00851982095452728	6.43299873545733e-05
	-0.00796504129229767
 159	3.33429738858783e-08	7.74371274330322e-05	5.99650870507966e-06
	0.0774371274330322	0.4	0.4
	0.385622101798345	-0.00361348143301823	6.80644731970623e-05
	-0.00976889482876904
 160	3.33431536096058e-08	7.74195245921595e-05	5.993782788076e-06
	0.0774195245921595	0.4	0.4
	0.392811050899002	-0.00730285305324311	6.90224629400139e-05
	-0.00993082718297637
 161	3.33433333333333e-08	7.74192485656486e-05	5.99374004846968e-06
	0.0774192485656486	0.4	0.4
	0.399999999999924	-0.00266556812217495	7.13303736618942e-05
	-0.0115722017134271
 162	3.33434934951443e-08	7.74260119836414e-05	5.99478733169098e-06
	0.0774260119836414	0.4	0.4
	0.4	-0.00192023276929866	-1.8402890014066e-07
	-0.0126091368894213
 163	3.33436740044632e-08	7.74469601956206e-05	5.99803164354205e-06
	0.0774469601956206	0.4	0.4
	0.4	-0.00141943702348495	-1.85748558860906e-07
	-0.0140852033846568
 164	3.33438546047063e-08	7.74959303203996e-05	6.00561921622423e-06
	0.0774959303203996	0.4	0.4
	0.4	-0.00105575560468814	-1.8729886360211e-07
	-0.0156370374302469
 165	3.33442158051926e-08	7.76772468434401e-05	6.03375467717672e-06
	0.0776772468434401	0.4	0.4
	0.4	-0.000450476200804114	-1.90167075155499e-07
	-0.0187437057097795
 166	3.33447175698501e-08	7.80961476089493e-05	6.0990082713588e-06
	0.0780961476089493	0.4	0.4
	0.4	2.10199839179436e-05	-1.94038303338346e-07
	-0.022926420711461
 167	3.33454329617681e-08	7.89689492600156e-05	6.23609494723091e-06
	0.0789689492600156	0.4	0.4
	0.4	0.000613789490293564	-1.99617836667675e-07
	-0.0285065254275354
 168	3.33461511776302e-08	8.00986804226731e-05	6.41579860545351e-06
	0.0800986804226731	0.4	0.4
	0.4	0.00118693346494897	-2.04921645108367e-07
	-0.0337498817780772
 169	3.33468820374549e-08	8.133069283756e-05	6.61468159743753e-06
	0.08133069283756	0.4	0.4
	0.4	0.00110412945849867	-2.0631519765644e-07
	-0.0353648279452562
 170	3.33473941442958e-08	8.21995170796098e-05	6.75676060812106e-06
	0.0821995170796098	0.4	0.4
	0.4	0.000254998323738187	-2.06906882880969e-07
	-0.0358541151243138
 171	3.33480131790727e-08	8.32566316551194e-05	6.93166671455623e-06
	0.0832566316551194	0.4	0.4
	0.4	0.000512333513355217	-2.07636498645513e-07
	-0.0362771147528783
 172	3.33486715629217e-08	8.43944004801775e-05	7.12241483240858e-06
	0.0843944004801775	0.4	0.4
	0.4	-9.65175708897547e-05	-2.08423565234409e-07
	-0.0367061356441104
 173	3.33495963612956e-08	8.60158178398052e-05	7.39872091865055e-06
	0.0860158178398052	0.4	0.4
	0.4	0.000309832363693922	-2.09449729992545e-07
	-0.0370714914172726
 174	3.335081419843e-08	8.8185664424368e-05	7.77671140996725e-06
	0.088185664424368	0.4	0.4
	0.4	-0.000235782078923559	-2.10688657027505e-07
	-0.037446217723294
 175	3.33525022381368e-08	9.1238404194947e-05	8.32444640004053e-06
	0.091238404194947	0.4	0.4