Title: // Generated for: spectre
Date: 10:58:42 AM, Sat Feb 15, 2014
Plotname: Transient Analysis `TimeDennis': time = (0 s -> 500 ns)
Flags: real
No. Variables:       10
No. Points:     1523
Variables:	0	time	s
		1	R4:1	A plot=0 grid=0
		2	R4:pwr	W plot=0 grid=0
		3	vout	V plot=0 grid=0
		4	vinc	V plot=0 grid=0
		5	vinb	V plot=0 grid=0
		6	clk	V plot=0 grid=0
		7	V2:p	A plot=0 grid=0
		8	V10:p	A plot=0 grid=0
		9	V11:p	A plot=0 grid=0
Values:
 0	0	6.6001459434461e-07	4.3561926474788e-10
	0.00066001459434461	0.4	0.4
	0	0	-2.23302055560522e-07
	-1.5534963908874e-06
 1	3.90625e-14	6.60219060293983e-07	4.3588920757547e-10
	0.000660219060293983	0.4	0.4
	0.0015625	-0.0018968633964817	3.35495522549344e-05
	0.000268025396969667
 2	1.171875e-13	6.60605014267311e-07	4.36398984875114e-10
	0.000660605014267311	0.4	0.4
	0.0046875	-0.00216265240999691	9.56643544027471e-05
	0.000394914328042905
 3	2.734375e-13	6.61333000185019e-07	4.37361337133718e-10
	0.000661333000185019	0.4	0.4
	0.0109375	-0.00264927047128797	0.00020785281439613
	0.000625503922873777
 4	5.64675137835052e-13	6.62497937853057e-07	4.38903517659553e-10
	0.000662497937853057	0.4	0.4
	0.0225870055134021	-0.0034226357079665	0.000376864174682785
	0.000974671148066769
 5	1.12041789329843e-12	6.64208152644454e-07	4.41172470039359e-10
	0.000664208152644454	0.4	0.4
	0.0448167157319372	-0.00442757616211528	0.000604902009152558
	0.00144829415627326
 6	1.80177523689526e-12	6.65705259711967e-07	4.43163492808177e-10
	0.000665705259711967	0.4	0.4
	0.0720710094758106	-0.00526852375662804	0.000773314694171157
	0.00179197413319657
 7	2.59143628168688e-12	6.66968661875543e-07	4.44847195924053e-10
	0.000666968661875543	0.4	0.4
	0.103657451267475	-0.00613204073340769	0.000879307443517896
	0.00197766751134648
 8	3.51510125833478e-12	6.68093521250286e-07	4.46348953136607e-10
	0.000668093521250286	0.4	0.4
	0.140604050333391	-0.00756331930919843	0.000904709365848064
	0.00195092031076132
 9	4.81372133386696e-12	6.69302769852423e-07	4.47966197732126e-10
	0.000669302769852423	0.4	0.4
	0.192548853354679	-0.0105445146463934	0.000786258676010062
	0.00150366751115558
 10	6.13116094521092e-12	6.69071298113545e-07	4.47656401959344e-10
	0.000669071298113545	0.4	0.4
	0.245246437808437	-0.014858034750231	0.000483941013212055
	0.000820267750477689
 11	7.45895568909575e-12	6.64766189821112e-07	4.41914087129278e-10
	0.000664766189821112	0.4	0.4
	0.29835822756383	-0.020314561904344	6.48549773909756e-05
	-6.60353305380609e-05
 12	7.76682264345755e-12	6.62522658954999e-07	4.38936273628802e-10
	0.000662522658954999	0.4	0.4
	0.310672905738302	-0.0212887814217773	-3.6060971828851e-05
	-0.000402552656867294
 13	7.92075612063845e-12	6.60928208247341e-07	4.3682609645704e-10
	0.000660928208247341	0.4	0.4
	0.316830244825538	-0.0217561485969628	-5.96206138194446e-05
	-0.000550992886029986
 14	8.11167414553984e-12	6.57819146761483e-07	4.32726029846006e-10
	0.000657819146761483	0.4	0.4
	0.324466965821594	-0.0212945561189978	-8.67983222195201e-05
	-0.000895242139909466
 15	8.2289701761656e-12	6.54188699949812e-07	4.27962855142025e-10
	0.000654188699949812	0.4	0.4
	0.329158807046624	-0.0188566267887871	-6.78728606033265e-05
	-0.00139366156121437
 16	8.36997592415405e-12	6.455660841351e-07	4.16755568985527e-10
	0.0006455660841351	0.4	0.4
	0.334799036966162	-0.0131026234164225	-1.07114663815281e-05
	-0.0023272115917091
 17	8.47875536974957e-12	6.38827974452156e-07	4.08101180942644e-10
	0.000638827974452156	0.4	0.4
	0.339150214789983	-0.0179719952088306	2.52037885330627e-05
	-0.00202637090706666
 18	8.5599378172424e-12	6.34394171364468e-07	4.0245596466121e-10
	0.000634394171364468	0.4	0.4
	0.342397512689696	-0.0136371165974406	2.20269537610566e-05
	-0.00329846164554217
 19	8.66195614658205e-12	6.28826944077437e-07	3.95423325597768e-10
	0.000628826944077437	0.4	0.4
	0.346478245863282	-0.0158264631170658	4.47078238882891e-05
	-0.00343274520903773
 20	8.79605524853385e-12	6.21051739507112e-07	3.85705263144809e-10
	0.000621051739507112	0.4	0.4
	0.351842209941354	-0.00951407664231806	4.08478346903308e-05
	-0.0051894732255086
 21	8.96663928410331e-12	6.11198932316282e-07	3.73564134864563e-10
	0.000611198932316282	0.4	0.4
	0.358665571364132	-0.0112194090577275	6.19544835250566e-05
	-0.0057206115999975
 22	9.1474579967728e-12	6.01830265249079e-07	3.62199668169777e-10
	0.000601830265249079	0.4	0.4
	0.365898319870912	-0.00599827151392448	5.44397235860597e-05
	-0.00753151107464641
 23	9.34455669253496e-12	5.93257597331398e-07	3.51954576791423e-10
	0.000593257597331398	0.4	0.4
	0.373782267701399	-0.00880036994967076	7.06481534195587e-05
	-0.00787707521622851
 24	9.58950687722596e-12	5.84993760414401e-07	3.42217699723782e-10
	0.000584993760414401	0.4	0.4
	0.383580275089038	-0.00404826423161753	6.07713068095206e-05
	-0.00981560373486478
 25	9.79475343861298e-12	5.80250372423852e-07	3.36690494698019e-10
	0.000580250372423852	0.4	0.4
	0.391790137544519	-0.00745571966539092	7.55492490054625e-05
	-0.010273521155634
 26	1e-11	5.78280343269107e-07	3.34408155411436e-10
	0.000578280343269107	0.4	0.4
	0.4	-0.00297865221448751	6.4575507161677e-05
	-0.0122499309842261
 27	1.01607153850712e-11	5.77902475003043e-07	3.33971270614643e-10
	0.000577902475003043	0.4	0.4
	0.4	-0.00207298309925375	-1.84381640051447e-07
	-0.013453842977604
 28	1.0343812766249e-11	5.79111347998658e-07	3.35369953380823e-10
	0.000579111347998658	0.4	0.4
	0.4	-0.00157197578357233	-1.86210653501778e-07
	-0.015132194023876
 29	1.05245122873256e-11	5.83626776527066e-07	3.40620214279374e-10
	0.000583626776527066	0.4	0.4
	0.4	-0.001236390623296	-1.87849196713657e-07
	-0.0168268276558749
 30	1.0885911329479e-11	6.02214923476921e-07	3.62662814058314e-10
	0.000602214923476921	0.4	0.4
	0.4	-0.000629456886099643	-1.90881302472196e-07
	-0.020185909958261
 31	1.13669448399771e-11	6.4472555546967e-07	4.15671041875674e-10
	0.00064472555546967	0.4	0.4
	0.4	-0.000175707820709805	-1.94707922201835e-07
	-0.0243963136801184
 32	1.20636657735263e-11	7.35094794447167e-07	5.40364356823323e-10
	0.000735094794447167	0.4	0.4
	0.4	0.000361045930563527	-2.0005026027285e-07
	-0.0297879119423888
 33	1.28236917652643e-11	8.65504497548966e-07	7.49098035277487e-10
	0.000865504497548966	0.4	0.4
	0.4	0.000760395527660516	-2.05809978654677e-07
	-0.0354293911587037
 34	1.34776968257726e-11	9.91199868827645e-07	9.82477179963941e-10
	0.000991199868827645	0.4	0.4
	0.4	0.00125502980408714	-2.08186062968387e-07
	-0.0379182609675525
 35	1.40786330279511e-11	1.10767197422469e-06	1.22693720248283e-09
	0.00110767197422469	0.4	0.4
	0.4	0.000636158290095175	-2.08893215065361e-07
	-0.0387010724868705
 36	1.47974336668234e-11	1.24552958036939e-06	1.55134393557516e-09
	0.00124552958036939	0.4	0.4
	0.4	0.000673376597326355	-2.09566958976135e-07
	-0.0391608207700314
 37	1.55169221372329e-11	1.38316567681782e-06	1.91314728952689e-09
	0.00138316567681782	0.4	0.4
	0.4	0.000114552884212234	-2.10274887267773e-07
	-0.0395879013902375
 38	1.6386141626533e-11	1.55051845851628e-06	2.4041074901997e-09
	0.00155051845851628	0.4	0.4
	0.4	0.000352859269273211	-2.11130387719817e-07
	-0.0400111629327943
 39	1.75204158520696e-11	1.77156227616616e-06	3.13843289833502e-09
	0.00177156227616616	0.4	0.4
	0.4	-7.49575516259928e-05	-2.12188161288105e-07
	-0.0405213239761285
 40	1.89462231132069e-11	2.05357333650857e-06	4.21716344841894e-09
	0.00205357333650857	0.4	0.4
	0.4	0.00024362457242022	-2.13421650425826e-07
	-0.0409692377286269
 41	2.08940670521791e-11	2.44490248639158e-06	5.97754816796371e-09
	0.00244490248639158	0.4	0.4
	0.4	-0.000171761068771088	-2.14936951090854e-07
	-0.041457178973887
 42	2.36379178045772e-11	3.00543675551579e-06	9.03265009140527e-09
	0.00300543675551579	0.4	0.4
	0.4	0.000168180643826283	-2.16766449257567e-07
	-0.0419040846071183
 43	2.69552897781226e-11	3.69324913940265e-06	1.36400892056984e-08
	0.00369324913940265	0.4	0.4
	0.4	-0.000194515389221935	-2.18454710390554e-07
	-0.0422293102761264
 44	3.10698264980599e-11	4.55491452396056e-06	2.07472463205869e-08
	0.00455491452396056	0.4	0.4
	0.4	0.00016250072849714	-2.19942735367816e-07
	-0.0423734437174463
 45	3.64591025962763e-11	5.69008350602296e-06	3.23770503055146e-08
	0.00569008350602296	0.4	0.4
	0.4	-0.000192966813274029	-2.21203326787593e-07
	-0.042427902029845
 46	4.36267855299693e-11	7.2026806955495e-06	5.18786092020414e-08
	0.0072026806955495	0.4	0.4
	0.4	0.000168403528663073	-2.22122405771061e-07
	-0.0423244972702052
 47	5.28199173159243e-11	9.13880062811114e-06	8.35176769203646e-08
	0.00913880062811114	0.4	0.4
	0.4	-0.000188322062929394	-2.22690290862589e-07
	-0.0421352945210621
 48	6.45846302215527e-11	1.16025495705659e-05	1.3461915653744e-07
	0.0116025495705659	0.4	0.4
	0.4	0.000173220300579302	-2.22935898596365e-07
	-0.0417971322350879
 49	8.0639687310898e-11	1.49333916857125e-05	2.23006187238906e-07
	0.0149333916857125	0.4	0.4
	0.4	-0.000187382034018983	-2.23036179209002e-07
	-0.0413449215951697
 50	1.01072801430305e-10	1.91165629945011e-05	3.6544298072273e-07
	0.0191165629945011	0.4	0.4
	0.4	0.000174483306634227	-2.23041494222143e-07
	-0.0407236558160868
 51	1.36235144676171e-10	2.61705805362443e-05	6.84899285604048e-07
	0.0261705805362443	0.4	0.4
	0.4	-0.00018775518023147	-2.23054929860257e-07
	-0.0397465638278365
 52	1.88223371453089e-10	3.63012040199657e-05	1.31777741329917e-06
	0.0363012040199657	0.4	0.4
	0.4	0.000174458097248911	-2.23042977720313e-07
	-0.0385023042279241
 53	2.85650408717072e-10	5.43930845804968e-05	2.95860765018108e-06
	0.0543930845804968	0.4	0.4
	0.4	-0.000187023165034916	-2.23069902377818e-07
	-0.0362172484145183
 54	4.28951877073917e-10	7.88821036230659e-05	6.2223862720001e-06
	0.0788821036230659	0.4	0.4
	0.4	0.000175729849777262	-2.23096102510406e-07
	-0.03281290878547
 55	6.95819799935261e-10	0.000117987297335149	1.39210023324529e-05
	0.117987297335149	0.4	0.4
	0.4	-0.000185249447687531	-2.2314739344949e-07
	-0.0268875473991996
 56	1.04168920155972e-09	0.000157459397204648	2.47934617680511e-05
	0.157459397204648	0.4	0.4
	0.4	0.000178062313702757	-2.23181857962522e-07
	-0.0205150504417013
 57	1.42439710072435e-09	0.000189353173438696	3.58546242913048e-05
	0.189353173438696	0.4	0.4
	0.4	-0.000183292333390114	-2.2321832260033e-07
	-0.0153564163042845
 58	1.86104959310904e-09	0.000214912560627611	4.61874087155168e-05
	0.214912560627611	0.4	0.4
	0.4	0.000179526754441214	-2.2323640370037e-07
	-0.0112905890122786
 59	2.3461904910949e-09	0.000234227323463556	5.48624390569011e-05
	0.234227323463556	0.4	0.4
	0.4	-0.000182262714632259	-2.23260067774509e-07
	-0.00832856623413421
 60	2.88201744134165e-09	0.000248471181238893	6.1737927906251e-05
	0.248471181238893	0.4	0.4
	0.4	0.000180205083241284	-2.23269332482232e-07
	-0.00617991470099465
 61	3.49723338252187e-09	0.000259174407296314	6.71713733973955e-05
	0.259174407296314	0.4	0.4
	0.4	-0.00018171420647456	-2.23282723411168e-07
	-0.00458865102372357
 62	4.22538071967242e-09	0.000267140713278868	7.13641606911421e-05
	0.267140713278868	0.4	0.4
	0.4	0.000180544096630263	-2.23287285468707e-07
	-0.00336052962216578
 63	5.11138485847671e-09	0.000272806961855284	7.44236384367101e-05
	0.272806961855284	0.4	0.4
	0.4	-0.000181361206258866	-2.2329451983435e-07
	-0.00243874075264024
 64	6.20706015427213e-09	0.00027637761453916	7.63845858183565e-05
	0.27637761453916	0.4	0.4
	0.4	0.000180746165673995	-2.2329668281154e-07
	-0.0017244882009398
 65	7.57878442808553e-09	0.000277965091697003	7.72645922021235e-05
	0.277965091697003	0.4	0.4
	0.4	-0.000181138565014023	-2.23299468581086e-07
	-0.00120871933252459
 66	9.27866338829311e-09	0.000277678768587813	7.71054985244442e-05
	0.277678768587813	0.4	0.4
	0.4	0.000180854911848976	-2.23300560589302e-07
	-0.000829582020174928
 67	1.13791259043217e-08	0.000275629254437444	7.59714859017414e-05
	0.275629254437444	0.4	0.4
	0.4	-0.00018101173247819	-2.2330065767504e-07
	-0.000575567421111962
 68	1.38823971730321e-08	0.000272016968989404	7.39932314181824e-05
	0.272016968989404	0.4	0.4
	0.4	0.000180899383392174	-2.23301922345977e-07
	-0.000395215186223327
 69	1.66666666666667e-08	0.000267268577943822	7.14324927561129e-05
	0.267268577943822	0.4	0.4
	0.4	-0.000180949831480097	-2.23300336584618e-07
	-0.000291764590586369
 70	1.66691666666667e-08	0.000267251027510236	7.14231117052771e-05
	0.267251027510236	0.4	0.4
	0.300000000000019	0.00324325401328924	-0.000321358950270695
	-0.00136890982863602
 71	1.66718044063901e-08	0.000267269968778333	7.14332362107712e-05
	0.267269968778333	0.4	0.4
	0.194490411061551	0.00486047500175669	-0.0027518439871079
	-0.00513823425327135
 72	1.66724121889247e-08	0.000267282828190338	7.14401102454256e-05
	0.267282828190338	0.4	0.4
	0.1701791096789	0.00600187964341468	-0.00377155841250711
	-0.00647997493270155
 73	1.66726756510478e-08	0.000267288609482031	7.14432007588379e-05
	0.267288609482031	0.4	0.4
	0.159640624755763	0.00628354023097433	-0.0041989800772653
	-0.00696510019672002
 74	1.66729667874896e-08	0.000267295021374831	7.14466284517712e-05
	0.267295021374831	0.4	0.4
	0.147995167081471	0.00703664284796454	-0.00478838701140393
	-0.0076105633351455
 75	1.66733095826642e-08	0.00026730344233981	7.14511302867121e-05
	0.26730344233981	0.4	0.4
	0.134283360097115	0.00687330853379426	-0.0054228702787768
	-0.0080783179317695
 76	1.66734902293361e-08	0.000267306681115278	7.1452861768865e-05
	0.267306681115278	0.4	0.4
	0.127057493223741	0.0107192818992302	-0.00581261569844964
	-0.00886952406219842
 77	1.66736750089871e-08	0.000267308607852614	7.14538918321023e-05
	0.267308607852614	0.4	0.4
	0.119666307181666	0.0109325820320557	-0.0061495818608146
	-0.00942542638706432
 78	1.66738906643426e-08	0.000267309881652157	7.14545728288904e-05
	0.267309881652157	0.4	0.4
	0.111040092962266	0.0140906013703817	-0.00660080225895298
	-0.0102751984991701
 79	1.66741150012939e-08	0.000267310634027781	7.1454975064334e-05
	0.26731063402778	0.4	0.4
	0.102066614909611	0.013746330161179	-0.00699622163604744
	-0.0107782147534496
 80	1.66743910823438e-08	0.000267311127486775	7.14552388782508e-05
	0.267311127486775	0.4	0.4
	0.0910233729163377	0.0164776347167089	-0.00753973668132324
	-0.0114278321179204
 81	1.66747824709432e-08	0.000267311386572819	7.14553773914833e-05
	0.267311386572819	0.4	0.4
	0.0753678289378716	0.0156849671490307	-0.00816406935598023
	-0.0115519744396102
 82	1.66752699820715e-08	0.000267311223612399	7.14552902691582e-05
	0.267311223612399	0.4	0.4
	0.0558673838077024	0.0171906878855124	-0.00884294163981873
	-0.0111790788058525
 83	1.66759369394185e-08	0.000267310573940225	7.14549429402524e-05
	0.267310573940225	0.4	0.4
	0.0291890899257825	0.015103073011424	-0.00932773091330879
	-0.0106965021035919
 84	1.66766666666667e-08	0.000267310181822951	7.1454733306219e-05
	0.267310181822951	0.4	0.4
	0	0.0150533731591857	-0.00962260772026678
	-0.00967786468539255
 85	1.66768850491799e-08	0.000267311365540703	7.14553661472352e-05
	0.267311365540703	0.4	0.4
	0	0.00996489425307525	-0.00928395134736088
	-0.00786367434077406
 86	1.66772506929057e-08	0.000267313649894316	7.14565874198208e-05
	0.267313649894316	0.4	0.4
	0	0.00707443097159804	-0.00879229393658543
	-0.00642295675764288
 87	1.66775920161739e-08	0.000267316743002575	7.14582410895045e-05
	0.267316743002575	0.4	0.4
	0	0.0053149287566698	-0.00845336890416467
	-0.00598799503089596
 88	1.6678265197482e-08	0.000267328228323783	7.14643816587328e-05
	0.267328228323783	0.4	0.4
	0	0.00253541555149022	-0.00795969583739996
	-0.00570961949357924
 89	1.66788628151956e-08	0.000267345998076508	7.14738826875241e-05
	0.267345998076508	0.4	0.4
	0	0.00144234827117476	-0.00762344665372096
	-0.00691303790025519
 90	1.66795783802952e-08	0.000267377184701387	7.14905588988396e-05
	0.267377184701387	0.4	0.4
	0	0.000392218713553885	-0.0071753412877872
	-0.00853029082870096
 91	1.66804045562967e-08	0.000267424715703672	7.15159785691898e-05
	0.267424715703672	0.4	0.4
	0	1.87217744583687e-05	-0.00663021358604554
	-0.0110860713511622
 92	1.66814959775357e-08	0.000267502115405044	7.15573817461735e-05
	0.267502115405044	0.4	0.4
	0	-0.000458087730737669	-0.00584638475540275
	-0.0141066445732604
 93	1.66827619889408e-08	0.000267608118930416	7.16141053174758e-05
	0.267608118930416	0.4	0.4
	0	-0.000515287539992025	-0.00493696859546522
	-0.0179550476831478
 94	1.66841337021596e-08	0.000267735316973599	7.16821999549534e-05
	0.267735316973599	0.4	0.4
	0	-0.000549408330116031	-0.00357257819342966
	-0.0225862030074055
 95	1.66853878305546e-08	0.00026785795235953	7.17478826422404e-05
	0.26785795235953	0.4	0.4
	0	-0.000441610544166361	-0.00222912246601215
	-0.0272556959214816
 96	1.66867469940313e-08	0.000268012039148255	7.18304531284056e-05
	0.268012039148255	0.4	0.4
	0	-0.00110329662899361	-0.00153760707865321
	-0.0306785172618585
 97	1.6687771916889e-08	0.000268142314587008	7.1900300872078e-05
	0.268142314587008	0.4	0.4
	0	0.00023049421716707	-0.00123063403544481
	-0.0324886264539379
 98	1.66890702631348e-08	0.000268319382791987	7.1995291181873e-05
	0.268319382791987	0.4	0.4
	0	-0.000428924809089533	-0.000921502598681996
	-0.0337464698171406
 99	1.66908020584153e-08	0.000268568117771755	7.21288338834633e-05
	0.268568117771755	0.4	0.4
	0	0.000678102098665362	-0.000638744163377225
	-0.0348051361553718
 100	1.66925771235669e-08	0.000268831103583	7.22701622536536e-05
	0.268831103583	0.4	0.4
	0	-0.000304395319246793	-0.000430772664731403
	-0.0351704541197678
 101	1.66947039970869e-08	0.000269150691228758	7.24420945889181e-05
	0.269150691228758	0.4	0.4
	0	0.000637990723277191	-0.000284789849372482
	-0.0355442552876208
 102	1.66973138965757e-08	0.00026954555519455	7.26548063251382e-05
	0.26954555519455	0.4	0.4
	0	-0.000391874525718347	-0.00016560209646778
	-0.0355685711283878
 103	1.67010294149853e-08	0.000270108715700016	7.29587182971122e-05
	0.270108715700016	0.4	0.4
	0	0.000552186036816837	-8.83809922174209e-05
	-0.0357103235174899
 104	1.67062216924806e-08	0.00027089441813206	7.33837857751074e-05
	0.27089441813206	0.4	0.4
	0	-0.000451932754666467	-3.00735108068263e-05
	-0.0355365407831359
 105	1.67127853262966e-08	0.00027188272202508	7.39202145357669e-05
	0.27188272202508	0.4	0.4
	0	0.000517042758569391	-1.61397995457258e-05
	-0.0354910251914125
 106	1.67215114444525e-08	0.000273186576514188	7.46309055875422e-05
	0.273186576514188	0.4	0.4
	0	-0.000465226232207062	-2.52474533614056e-06
	-0.0351535666939578
 107	1.6733561909221e-08	0.000274967341437712	7.56070388573232e-05
	0.274967341437712	0.4	0.4
	0	0.000512141941375008	-9.26735957770312e-06
	-0.0349389062988296
 108	1.67528641916124e-08	0.000277772252318317	7.71574241579907e-05
	0.277772252318317	0.4	0.4
	0	-0.000467200154277571	-2.54523636685695e-06
	-0.0343435516297597
 109	1.67881471787586e-08	0.000282751923246428	7.99486500995542e-05
	0.282751923246428	0.4	0.4
	0	0.000510744614356682	-9.43351644809673e-06
	-0.0335652533640782
 110	1.68576155780395e-08	0.000292015827874827	8.52732437294209e-05
	0.292015827874827	0.4	0.4
	0	-0.000469787463669748	-1.91093400410469e-06
	-0.0317742797141766
 111	1.69965523766014e-08	0.000308543862722339	9.51993152236214e-05
	0.308543862722339	0.4	0.4
	0	0.00050576263274003	-8.69085996265798e-06
	-0.0286628212904998
 112	1.72479642185027e-08	0.000332666804952788	0.000110667203117496
	0.332666804952788	0.4	0.4
	0	-0.000477054651040055	-4.18312127732875e-07
	-0.0234905942060539
 113	1.75796456334396e-08	0.000355706444034359	0.000126527074327569
	0.355706444034359	0.4	0.4
	0	0.000497944703064458	-6.85651099957194e-06
	-0.0183842837745527
 114	1.796431949892e-08	0.000373903477289912	0.000139803810329488
	0.373903477289912	0.4	0.4
	0	-0.000483414239692427	1.15800418963223e-06
	-0.0139546326520569
 115	1.84061059696961e-08	0.000387710863622961	0.000150319713771262
	0.387710863622961	0.4	0.4
	0	0.000493325378473999	-5.58555503201988e-06
	-0.0106245392969298
 116	1.89125996170409e-08	0.000397900971351036	0.000158325183002098
	0.397900971351036	0.4	0.4
	0	-0.000486693776110594	2.10249471097232e-06
	-0.00789800037632233
 117	1.95200186507232e-08	0.000405431516583142	0.000164374714638907
	0.405431516583142	0.4	0.4
	0	0.000491072359308879	-4.81861073994652e-06
	-0.00590010513489659
 118	2.02674903773235e-08	0.00041063947760294	0.000168624780566015
	0.41063947760294	0.4	0.4
	0	-0.000488353920273541	2.6771868461299e-06
	-0.0041770251315199
 119	2.12042601818837e-08	0.000413648298043447	0.00017110491447424
	0.413648298043447	0.4	0.4
	0	0.00048997383583402	-4.32000263513588e-06
	-0.00299560624496904
 120	2.23434274303046e-08	0.000414484020515483	0.000171797003262679
	0.414484020515483	0.4	0.4
	0	-0.000489075429393375	3.0338261034173e-06
	-0.00200355066249696
 121	2.3764497097059e-08	0.000413353909926584	0.000170861454851595
	0.413353909926584	0.4	0.4
	0	0.000489521802910557	-4.01799338588336e-06
	-0.00143744852740013
 122	2.53814147664001e-08	0.000410643398445286	0.000168628000686694
	0.410643398445286	0.4	0.4
	0	-0.000489292977861578	3.2022983031931e-06
	-0.000936635383986015
 123	2.74413091758037e-08	0.00040612382890214	0.000164936564402135
	0.40612382890214	0.4	0.4
	0	0.000489429795436532	-3.85171008742509e-06
	-0.000712474836107272
 124	2.97601445168155e-08	0.000400334993970001	0.00016026810739696
	0.40033499397	0.4	0.4
	0	-0.000489371399536379	3.25462802933664e-06
	-0.000438027651262304
 125	3.15467389250744e-08	0.00039557652893547	0.000156480790244635
	0.39557652893547	0.4	0.4
	0	0.000489441167842508	-3.76292515365056e-06
	-0.000420689075811661
 126	3.33333333333333e-08	0.000390661743953569	0.000152616598188844
	0.390661743953569	0.4	0.4
	0	-0.000489421561883342	3.23144616639317e-06
	-0.000275262255087323
 127	3.33333723958333e-08	0.00039066229933584	0.000152617032122366
	0.39066229933584	0.4	0.4
	0.00156249999984461	-0.00304867477236993	2.75064620104747e-05
	1.76477889515353e-05
 128	3.33334505208333e-08	0.00039066337660157	0.00015261787381774
	0.39066337660157	0.4	0.4
	0.00468749999953382	-0.00319126837006994	8.02275974009724e-05
	0.000141283290387405
 129	3.33336067708333e-08	0.000390665372570277	0.000152619433325474
	0.390665372570277	0.4	0.4
	0.0109374999989123	-0.00348821358749352	0.000177489090706981
	0.000346637746317568
 130	3.33339192708333e-08	0.000390668859425204	0.00015262215772459
	0.390668859425204	0.4	0.4
	0.0234374999976691	-0.00401595891858679	0.000346296016562023
	0.000710582824371752
 131	3.33345442708332e-08	0.000390674552553537	0.000152626606012906
	0.390674552553537	0.4	0.4
	0.0484374999951828	-0.00491207333656618	0.000596258199716484
	0.00118908965126382
 132	3.33357942708331e-08	0.000390684201277532	0.000152634145127863
	0.390684201277532	0.4	0.4
	0.0984374999902103	-0.00652054716418323	0.000857734613119957
	0.00154119571229108
 133	3.33376937919477e-08	0.000390697586276934	0.000152644603922622
	0.390697586276934	0.4	0.4
	0.174418344572917	-0.00994946652137006	0.000851484580302675
	0.000880188606904095
 134	3.33396714048515e-08	0.000390699539382578	0.000152646130073759
	0.390699539382578	0.4	0.4
	0.253522860727071	-0.0152927690323613	0.000438879854473016
	-0.000527169261335692
 135	3.3340768446151e-08	0.000390684480018851	0.0001526343629276
	0.390684480018851	0.4	0.4
	0.297404512704784	-0.0191442425363951	0.000112484567459129
	-0.000776329293786828
 136	3.33411083117902e-08	0.000390673425159098	0.000152625725125541
	0.390673425159098	0.4	0.4
	0.310999138273951	-0.0189470907201889	1.03130430530749e-05
	-0.000930176124543825
 137	3.33414879940518e-08	0.000390644939700783	0.000152603468913828
	0.390644939700783	0.4	0.4
	0.326186428740535	-0.0146770415001385	-4.95277104108628e-05
	-0.000750318924328542
 138	3.33418575062487e-08	0.000390580889174019	0.000152553430987967
	0.390580889174019	0.4	0.4
	0.340966916614982	-0.00301835039859804	1.33445060435682e-06
	-0.000769489018017631
 139	3.33421748526179e-08	0.000390517047017529	0.000152503564011291
	0.390517047017529	0.4	0.4
	0.353660771383285	-0.0109444989405901	6.10355886329538e-05
	-0.00128441996248353
 140	3.33424419925739e-08	0.000390468487381135	0.000152465639637712
	0.390468487381135	0.4	0.4
	0.364346369622653	-0.00582546285076403	4.81041933251999e-05
	-0.00264747300932406
 141	3.33426808453347e-08	0.000390431183769143	0.000152436509259375
	0.390431183769143	0.4	0.4
	0.373900480055137	-0.0118516177828215	7.61077285903493e-05
	-0.00428525054713365
 142	3.3343007089334e-08	0.0003903915559772	0.0001524055669783
	0.3903915559772	0.4	0.4
	0.386950240027398	-0.00542533665132358	5.63225483137295e-05
	-0.00675022444951649
 143	3.33433333333333e-08	0.000390364137523827	0.000152384159864721
	0.390364137523827	0.4	0.4
	0.399999999999924	-0.0107041293597002	8.27101506742279e-05
	-0.00915938048924039
 144	3.33435417026861e-08	0.000390351439557207	0.000152374246364384
	0.390351439557207	0.4	0.4
	0.4	-0.00440511580865931	-1.83334478966058e-07
	-0.0109795644878013
 145	3.33437875378167e-08	0.000390340446799702	0.000152365664407791
	0.390340446799702	0.4	0.4
	0.4	-0.00363119341506006	-1.8779487624389e-07
	-0.0130419169703147
 146	3.33440254673181e-08	0.000390336695360735	0.000152362735745139
	0.390336695360735	0.4	0.4
	0.4	-0.00276816558809961	-1.90970348078117e-07
	-0.014995940671519
 147	3.33444376688526e-08	0.000390343694083854	0.000152368199511029
	0.390343694083854	0.4	0.4
	0.4	-0.00155846526442818	-1.94558554285683e-07
	-0.0186082358804848
 148	3.33449465711297e-08	0.00039037298381428	0.000152391066492064
	0.39037298381428	0.4	0.4
	0.4	0.000418153312627955	-1.97080892604589e-07
	-0.0244985281639555
 149	3.33453271750278e-08	0.000390403528197203	0.000152414914828824
	0.390403528197203	0.4	0.4
	0.4	0.002020952108405	-1.96815275029918e-07
	-0.0280629501887182
 150	3.33455070609266e-08	0.000390420955212246	0.000152428522268843
	0.390420955212246	0.4	0.4
	0.4	0.000727222040620233	-1.96545245830941e-07
	-0.0300270025454569
 151	3.33457061903698e-08	0.000390441722526097	0.000152444738689146
	0.390441722526097	0.4	0.4
	0.4	0.00152550204539926	-1.96564903992521e-07
	-0.0300636734840904
 152	3.33459734828047e-08	0.000390471082785363	0.000152467666491574
	0.390471082785363	0.4	0.4
	0.4	0.000218724981247882	-1.96925024789361e-07
	-0.0315830853510554
 153	3.33462509981763e-08	0.000390502758757579	0.00015249240459728
	0.390502758757579	0.4	0.4
	0.4	0.00107323665216126	-1.97560469602572e-07
	-0.0312918343390468
 154	3.33466565626293e-08	0.000390550128872676	0.000152529403162464
	0.390550128872676	0.4	0.4
	0.4	-0.00016147341799106	-1.98636747401334e-07
	-0.0324319892892288
 155	3.33471186180896e-08	0.000390605284046739	0.000152572487925234
	0.390605284046739	0.4	0.4
	0.4	0.000725290243849647	-1.99943270942091e-07
	-0.0320102465034377
 156	3.33478069446941e-08	0.000390689480423417	0.00015263827011352
	0.390689480423417	0.4	0.4
	0.4	-0.000447274793774726	-2.01890652753142e-07
	-0.0330610160762142
 157	3.33486856842422e-08	0.000390799991633929	0.000152724633461079
	0.390799991633929	0.4	0.4
	0.4	0.000505010858777143	-2.04155055877202e-07
	-0.0325687051561153
 158	3.33498185576744e-08	0.000390947029590076	0.000152839579945304
	0.390947029590076	0.4	0.4
	0.4	-0.000599969414548191	-2.06743322107716e-07
	-0.0335198321951242
 159	3.33514913363559e-08	0.000391172266204551	0.000153015741847604
	0.391172266204551	0.4	0.4
	0.4	0.000411010590104279	-2.10020433964231e-07
	-0.0329638381139802
 160	3.33536337625521e-08	0.000391470981381276	0.000153249529263619
	0.391470981381276	0.4	0.4
	0.4	-0.000618627434460044	-2.13230611501017e-07
	-0.033773797063865
 161	3.33561493273759e-08	0.000391832264882912	0.000153532523803272
	0.391832264882912	0.4	0.4
	0.4	0.000448498289917251	-2.15900533452394e-07
	-0.0331783392449184
 162	3.33593884500678e-08	0.000392310037422801	0.00015390716546268
	0.392310037422801	0.4	0.4
	0.4	-0.000566360220018543	-2.18160981367385e-07
	-0.0340706991718523
 163	3.33639197127609e-08	0.000392991513346607	0.000154442329562456
	0.392991513346607	0.4	0.4
	0.4	0.00048605814431091	-2.20112069772407e-07
	-0.0333510322903604
 164	3.33690542381576e-08	0.00039377216326846	0.000155056516565123
	0.39377216326846	0.4	0.4
	0.4	-0.000539393145267917	-2.21414841868073e-07
	-0.0340721208343776
 165	3.33757085642269e-08	0.00039478716316986	0.000155856904203706
	0.39478716316986	0.4	0.4
	0.4	0.000508553999743291	-2.22249672012232e-07
	-0.0331931369412875
 166	3.33851040764254e-08	0.000396215692354814	0.000156986874868204
	0.396215692354814	0.4	0.4
	0.4	-0.000527937032388319	-2.22761737052866e-07
	-0.0337309938949833
 167	3.33958097096293e-08	0.000397830159405706	0.000158268835732769
	0.397830159405706	0.4	0.4
	0.4	0.000515521640411569	-2.22963718036353e-07
	-0.0327204241499102
 168	3.3411503555211e-08	0.000400166076347242	0.000160132888659147
	0.400166076347242	0.4	0.4
	0.4	-0.000526166131223043	-2.2305243261454e-07
	-0.0330740750446501
 169	3.34329815775709e-08	0.000403299799459432	0.000162650728244018
	0.403299799459432	0.4	0.4
	0.4	0.000517091668106043	-2.23046198144518e-07
	-0.031781742042486
 170	3.34718251345994e-08	0.000408786705258216	0.000167106570395867
	0.408786705258216	0.4	0.4
	0.4	-0.000526533918577304	-2.23085893276462e-07
	-0.0315776505216911
 171	3.35259798889284e-08	0.000416060733082076	0.000173106533612794
	0.416060733082076	0.4	0.4
	0.4	0.000517713806114421	-2.23078327005171e-07
	-0.0295282506155308
 172	3.36156839217161e-08	0.000427190439890198	0.000182491671933581
	0.427190439890198	0.4	0.4
	0.4	-0.00052625388405898	-2.23119300676677e-07
	-0.0282063921052816
 173	3.3776608816173e-08	0.000444539035006515	0.000197614953644523
	0.444539035006515	0.4	0.4
	0.4	0.000518598663463679	-2.23136219433342e-07
	-0.0240590096196631
 174	3.40217806360762e-08	0.000465533401925319	0.000216721348308161
	0.465533401925319	0.4	0.4
	0.4	-0.000525224760641745	-2.23189799442866e-07
	-0.0204618866119254
 175	3.44255638139981e-08	0.000489746563431973	0.000239851696393428
	0.489746563431973	0.4	0.4
	0.4	0.000519961912246997	-2.23217018809413e-07
	-0.0144342843677048
 176	3.48183440041686e-08	0.00050489670420295	0.000254920681915002
	0.50489670420295	0.4	0.4
	0.4	-0.000524056257609731	-2.23255108649908e-07
	-0.0116956292345651