Title: // Generated for: spectre
Date: 10:58:39 AM, Sat Feb 15, 2014
Plotname: Transient Analysis `TimeDennis': time = (0 s -> 500 ns)
Flags: real
No. Variables:       10
No. Points:     1418
Variables:	0	time	s
		1	R4:1	A plot=0 grid=0
		2	R4:pwr	W plot=0 grid=0
		3	vout	V plot=0 grid=0
		4	vinc	V plot=0 grid=0
		5	vinb	V plot=0 grid=0
		6	clk	V plot=0 grid=0
		7	V2:p	A plot=0 grid=0
		8	V10:p	A plot=0 grid=0
		9	V11:p	A plot=0 grid=0
Values:
 0	0	6.6001459434461e-07	4.3561926474788e-10
	0.00066001459434461	0.4	0.4
	0	0	-2.23302055560522e-07
	-1.5534963908874e-06
 1	3.90625e-14	6.60024819987269e-07	4.35632762999227e-10
	0.000660024819987269	0.4	0.4
	0.0015625	-0.00189699218824175	3.35498306797353e-05
	0.000268030718666387
 2	1.171875e-13	6.60044122177471e-07	4.35658243221028e-10
	0.000660044122177471	0.4	0.4
	0.0046875	-0.00216277906343187	9.56654663618399e-05
	0.000394916452008159
 3	2.734375e-13	6.60080530072489e-07	4.35706306180779e-10
	0.000660080530072489	0.4	0.4
	0.0109375	-0.0026493981463843	0.000207855803707272
	0.000625500148257104
 4	5.64693152089061e-13	6.60138794517791e-07	4.35783228027403e-10
	0.000660138794517791	0.4	0.4
	0.0225877260835624	-0.00342282779311989	0.000376880291304629
	0.000974676553105034
 5	1.12046368170665e-12	6.60224329702755e-07	4.35896165531452e-10
	0.000660224329702755	0.4	0.4
	0.0448185472682659	-0.00442786105159566	0.00060493214441024
	0.0014482924124305
 6	1.80190540882985e-12	6.60299209277715e-07	4.35995045772775e-10
	0.000660299209277715	0.4	0.4
	0.0720762163531939	-0.00526897714172511	0.000773353103475839
	0.00179197509587642
 7	2.59164879471817e-12	6.60362401742463e-07	4.36078501635075e-10
	0.000660362401742463	0.4	0.4
	0.103665951788727	-0.00613264893847297	0.000879345726969539
	0.00197758971818405
 8	3.51538651668721e-12	6.60418703082438e-07	4.36152863381089e-10
	0.000660418703082438	0.4	0.4
	0.140615460667488	-0.00756424828465462	0.000904705278375612
	0.00195057724708653
 9	4.81401239896164e-12	6.60479326156513e-07	4.36232940280162e-10
	0.000660479326156513	0.4	0.4
	0.192560495958466	-0.0105456963394948	0.000786227360122596
	0.00150318352891916
 10	6.13128015526832e-12	6.60467952276106e-07	4.36217915983793e-10
	0.000660467952276106	0.4	0.4
	0.245251206210733	-0.0148586937778086	0.000483913624029054
	0.000819682093919114
 11	7.45917451488551e-12	6.60252754029977e-07	4.3593369920417e-10
	0.000660252754029977	0.4	0.4
	0.29836698059542	-0.0203152728525405	6.47925527367629e-05
	-6.6522047241314e-05
 12	7.76703155893755e-12	6.60140528597838e-07	4.35785517497433e-10
	0.000660140528597838	0.4	0.4
	0.310681262357502	-0.0212889509211955	-3.6121811667273e-05
	-0.000402983139756962
 13	7.92096008096357e-12	6.60060750673452e-07	4.356801945796e-10
	0.000660060750673452	0.4	0.4
	0.316838403238543	-0.02175574325862	-5.96465258858311e-05
	-0.000551471343461779
 14	8.11168314487938e-12	6.59905339008306e-07	4.35475056451668e-10
	0.000659905339008306	0.4	0.4
	0.324467325795175	-0.0212925495932149	-8.68167856441673e-05
	-0.000895520295011435
 15	8.22895982006178e-12	6.59723738675826e-07	4.35235411372409e-10
	0.000659723738675826	0.4	0.4
	0.329158392802471	-0.018853685494194	-6.78743373154774e-05
	-0.00139395672273777
 16	8.36990733546053e-12	6.59292629116002e-07	4.3466677080669e-10
	0.000659292629116002	0.4	0.4
	0.334796293418421	-0.0131002807826265	-1.07302756249019e-05
	-0.0023269166180347
 17	8.47869373800369e-12	6.58955600179208e-07	4.3422248300754e-10
	0.000658955600179208	0.4	0.4
	0.339147749520148	-0.0179704069031992	2.5199201613109e-05
	-0.00202630566425645
 18	8.55986769300566e-12	6.58733810321325e-07	4.33930232860451e-10
	0.000658733810321325	0.4	0.4
	0.342394707720227	-0.0136334494591784	2.201533762649e-05
	-0.00329780849707474
 19	8.66189058756502e-12	6.58455202714026e-07	4.33563253981169e-10
	0.000658455202714026	0.4	0.4
	0.346475623502601	-0.0158232303194518	4.47066593813663e-05
	-0.00343237034440076
 20	8.79600539093868e-12	6.58065936800284e-07	4.33050777176836e-10
	0.000658065936800284	0.4	0.4
	0.351840215637547	-0.00950823305996757	4.08395082657779e-05
	-0.00518868600771164
 21	8.96653592737702e-12	6.57572728054105e-07	4.32401892680518e-10
	0.000657572728054105	0.4	0.4
	0.358661437095081	-0.0112159729076484	6.19552662928044e-05
	-0.00571981143727164
 22	9.14731464090346e-12	6.57103596210648e-07	4.31785136152967e-10
	0.000657103596210648	0.4	0.4
	0.365892585636138	-0.00599483455158038	5.44306684980453e-05
	-0.00753024167129745
 23	9.34437401977229e-12	6.56674069660133e-07	4.31220833764001e-10
	0.000656674069660133	0.4	0.4
	0.373774960790891	-0.00879858856424882	7.06510562931992e-05
	-0.00787649821426225
 24	9.58927529908334e-12	6.56259647318814e-07	4.30676724699014e-10
	0.000656259647318814	0.4	0.4
	0.383571011963334	-0.00404702704572634	6.07636209379027e-05
	-0.0098150689956057
 25	9.79463764954167e-12	6.56021278313876e-07	4.30363917600572e-10
	0.000656021278313876	0.4	0.4
	0.391785505981667	-0.00745438792797984	7.5553451620321e-05
	-0.0102746437920319
 26	1e-11	6.55921744641668e-07	4.3023333509377e-10
	0.000655921744641668	0.4	0.4
	0.4	-0.00297752283060912	6.45702645125156e-05
	-0.0122524195989508
 27	1.01607588528798e-11	6.55902156810357e-07	4.30207639308478e-10
	0.000655902156810357	0.4	0.4
	0.4	-0.00207173304826283	-1.84386373673057e-07
	-0.0134582140172538
 28	1.03439107653648e-11	6.55961961457149e-07	4.3028609487871e-10
	0.000655961961457149	0.4	0.4
	0.4	-0.00157111410543354	-1.86216833415292e-07
	-0.0151387784937641
 29	1.05246585543182e-11	6.56187367139763e-07	4.30581860793813e-10
	0.000656187367139763	0.4	0.4
	0.4	-0.00123558345817846	-1.87856760449617e-07
	-0.0168356087015756
 30	1.08861541322251e-11	6.57117125656277e-07	4.31802916830767e-10
	0.000657117125656277	0.4	0.4
	0.4	-0.000630615125684013	-1.90892914428084e-07
	-0.0202004266199611
 31	1.1366475624307e-11	6.59240873865073e-07	4.34598529774385e-10
	0.000659240873865073	0.4	0.4
	0.4	-0.000176824246425417	-1.94718742610836e-07
	-0.0244109031987097
 32	1.20646580644565e-11	6.63774281414212e-07	4.40596296666954e-10
	0.000663774281414212	0.4	0.4
	0.4	0.000360415091101714	-2.00076125450531e-07
	-0.0298199259844578
 33	1.28248304933674e-11	6.70305640522269e-07	4.49309651715969e-10
	0.000670305640522269	0.4	0.4
	0.4	0.000760118772964837	-2.05837105842906e-07
	-0.0354633337520472
 34	1.34795428410331e-11	6.76612543488282e-07	4.57804534005682e-10
	0.000676612543488282	0.4	0.4
	0.4	0.00125643667780214	-2.08251761321292e-07
	-0.0379935302230753
 35	1.40863089986547e-11	6.82509432855772e-07	4.65819125937107e-10
	0.000682509432855772	0.4	0.4
	0.4	0.000648034783398717	-2.08967750557652e-07
	-0.0387885745646774
 36	1.48045702738706e-11	6.89417154786964e-07	4.75296013314552e-10
	0.000689417154786964	0.4	0.4
	0.4	0.000671737991031033	-2.09649646423109e-07
	-0.0392575993034115
 37	1.55196103167783e-11	6.96277645316042e-07	4.84802559366853e-10
	0.000696277645316042	0.4	0.4
	0.4	0.000126574318330272	-2.10358441374267e-07
	-0.0396909808814856
 38	1.63868478637532e-11	7.04654370018689e-07	4.96537781186436e-10
	0.000704654370018689	0.4	0.4
	0.4	0.000353569494276993	-2.11217635605351e-07
	-0.0401311049800042
 39	1.75245867107492e-11	7.15783973458253e-07	5.12346696659685e-10
	0.000715783973458253	0.4	0.4
	0.4	-6.0352242224638e-05	-2.12288104174883e-07
	-0.0406610301046851
 40	1.89516232477984e-11	7.2996093866359e-07	5.3284297197463e-10
	0.00072996093866359	0.4	0.4
	0.4	0.000242101011714047	-2.13535721086474e-07
	-0.0411493002256259
 41	2.09084668411746e-11	7.49729922406221e-07	5.62094956551238e-10
	0.000749729922406221	0.4	0.4
	0.4	-0.000166578208100394	-2.15083909568237e-07
	-0.0416937559368986
 42	2.36561744551726e-11	7.78009970466637e-07	6.05299514145498e-10
	0.000778009970466637	0.4	0.4
	0.4	0.000172324852696447	-2.16929217348374e-07
	-0.0422389481158712
 43	2.69195551321671e-11	8.12165797341409e-07	6.59613282371207e-10
	0.000812165797341409	0.4	0.4
	0.4	-0.000185763453080996	-2.18599374168192e-07
	-0.0426372277209988
 44	3.10380462225257e-11	8.55799857188108e-07	7.32393395563187e-10
	0.000855799857188108	0.4	0.4
	0.4	0.00016718917981451	-2.20110109843347e-07
	-0.0429031096640737
 45	3.65433894730814e-11	9.14661598247246e-07	8.36605839308206e-10
	0.000914661598247246	0.4	0.4
	0.4	-0.000185306043089455	-2.21409491562895e-07
	-0.0431173058815514
 46	4.35564546090744e-11	9.90118263014781e-07	9.80334174755407e-10
	0.000990118263014781	0.4	0.4
	0.4	0.000173963028087522	-2.22323021674515e-07
	-0.0432196954065955
 47	5.30831888007874e-11	1.09299180730847e-06	1.19463109084344e-09
	0.00109299180730847	0.4	0.4
	0.4	-0.000180649789678269	-2.22922514853321e-07
	-0.0432943875715904
 48	6.48935582766072e-11	1.22074069797404e-06	1.49020785169014e-09
	0.00122074069797404	0.4	0.4
	0.4	0.000177770837509082	-2.23188702241872e-07
	-0.0432895753428994
 49	8.07786281707165e-11	1.39262290845643e-06	1.93939856515766e-09
	0.00139262290845643	0.4	0.4
	0.4	-0.000178928157627443	-2.23272192144075e-07
	-0.0432948365133871
 50	1.02120471456787e-10	1.62345448870346e-06	2.6356044768914e-09
	0.00162345448870346	0.4	0.4
	0.4	0.000178108571766211	-2.23291149183944e-07
	-0.0432458825835935
 51	1.33719280026427e-10	1.96491565781104e-06	3.86089354231101e-09
	0.00196491565781104	0.4	0.4
	0.4	-0.000178757866007366	-2.23285634535321e-07
	-0.0432178278549405
 52	1.95053081454343e-10	2.62661714593516e-06	6.89911763132058e-09
	0.00262661714593516	0.4	0.4
	0.4	0.000178043895436969	-2.23290434273303e-07
	-0.043108473751917
 53	3.1284502875731e-10	3.89343248168753e-06	1.51588164894595e-08
	0.00389343248168753	0.4	0.4
	0.4	-0.000178720440762117	-2.23283830849333e-07
	-0.0429542052575386
 54	5.48428923363243e-10	6.41123858082147e-06	4.11039801402137e-08
	0.00641123858082147	0.4	0.4
	0.4	0.000178028578750549	-2.23292345324669e-07
	-0.0425844713882109
 55	1.01959671257511e-09	1.13833856546233e-05	1.29581468961884e-07
	0.0113833856546233	0.4	0.4
	0.4	-0.000178701120102041	-2.2328472868045e-07
	-0.0419052395459446
 56	1.95618620082903e-09	2.10148510529982e-05	4.416239647797e-07
	0.0210148510529982	0.4	0.4
	0.4	0.000178041020010514	-2.23292992411184e-07
	-0.0404886435717525
 57	3.76478870504489e-09	3.876700130596e-05	1.5028803902563e-06
	0.03876700130596	0.4	0.4
	0.4	-0.000178699718523434	-2.23284863149492e-07
	-0.0382756675229438
 58	6.16173204882539e-09	6.07129728498331e-05	3.68606507226457e-06
	0.0607129728498331	0.4	0.4
	0.4	0.000178080583709727	-2.23294685425344e-07
	-0.0353978280944019
 59	9.41478755879985e-09	8.76634706855441e-05	7.68488409263526e-06
	0.0876634706855441	0.4	0.4
	0.4	-0.000178624388513173	-2.23288193313327e-07
	-0.0315875759678519
 60	1.30407271127333e-08	0.000113980281680035	1.29915046118602e-05
	0.113980281680035	0.4	0.4
	0.4	0.000178151993085262	-2.23297519345127e-07
	-0.0275328700988362
 61	1.66666666666667e-08	0.000136658848266101	1.86756408094172e-05
	0.136658848266101	0.4	0.4
	0.4	-0.000178546179003966	-2.23291086996228e-07
	-0.0239480073634413
 62	1.66691666666667e-08	0.000136673013655389	1.86795126616462e-05
	0.136673013655389	0.4	0.4
	0.300000000000019	0.00346631616592768	-0.000321317925376645
	-0.0239742608491262
 63	1.66718043860521e-08	0.000136686856667986	1.86832967857746e-05
	0.136686856667986	0.4	0.4
	0.194491224581507	0.00533418729005583	-0.00275131450841033
	-0.0177310190711542
 64	1.66725155637337e-08	0.00013668920860456	1.86839397489409e-05
	0.13668920860456	0.4	0.4
	0.16604411731724	0.0133655070343815	-0.00395037569082926
	-0.0166231706197119
 65	1.66735294240371e-08	0.000136692138084722	1.86847406141728e-05
	0.136692138084722	0.4	0.4
	0.125489705181987	0.0101368154570585	-0.00589255794628318
	-0.0145884661723823
 66	1.66744778329571e-08	0.000136694584480722	1.86854094263573e-05
	0.136694584480722	0.4	0.4
	0.0875533483842641	0.0154852753003903	-0.00789822621070215
	-0.0117056069369491
 67	1.66753744285284e-08	0.000136696408085781	1.86859079835545e-05
	0.136696408085781	0.4	0.4
	0.0516895255304343	0.0113504607778404	-0.00943130970903032
	-0.0101177693260032
 68	1.66760135120887e-08	0.000136697406435526	1.86861809261994e-05
	0.136697406435526	0.4	0.4
	0.0261261831192917	0.0153084409031801	-0.010073272749707
	-0.00883703970027938
 69	1.66766666666667e-08	0.000136698237914177	1.8686408248841e-05
	0.136698237914177	0.4	0.4
	0	0.0101065753208214	-0.0100727355045654
	-0.00873568251968854
 70	1.66768652228391e-08	0.000136698480620632	1.86864746039894e-05
	0.136698480620632	0.4	0.4
	0	0.00880642714351068	-0.00972663188153704
	-0.00726510630639465
 71	1.66771992936547e-08	0.00013669884317335	1.86865737249321e-05
	0.13669884317335	0.4	0.4
	0	0.00662370071551665	-0.00919935038422738
	-0.00596057003089518
 72	1.66775088223092e-08	0.000136699099669544	1.86866438504639e-05
	0.136699099669544	0.4	0.4
	0	0.0050718590578516	-0.00875033232578688
	-0.00515017120009092
 73	1.66781214263836e-08	0.000136699412314651	1.86867293271711e-05
	0.136699412314651	0.4	0.4
	0	0.00302500657216703	-0.00807852934307475
	-0.00411703912959008
 74	1.66787522827964e-08	0.00013669951197814	1.86867565750618e-05
	0.13669951197814	0.4	0.4
	0	0.0016484743230271	-0.00752882712893805
	-0.00362582119069294
 75	1.66796078840389e-08	0.00013669937160802	1.86867181980274e-05
	0.13669937160802	0.4	0.4
	0	0.000449509212733522	-0.00692786303692653
	-0.00341107086740941
 76	1.66799992409303e-08	0.000136699153679189	1.86866586166066e-05
	0.136699153679189	0.4	0.4
	0	-0.000142400185602283	-0.00637231926438781
	-0.0035469801525721
 77	1.66803957060984e-08	0.000136698860858581	1.86865785600337e-05
	0.136698860858581	0.4	0.4
	0	-0.00069507408482456	-0.00586271648069185
	-0.00358123373882227
 78	1.66806235834305e-08	0.00013669871776366	1.86865394382289e-05
	0.13669871776366	0.4	0.4
	0	-0.00026624910145289	-0.00567607039602997
	-0.0038822117988699
 79	1.66808782842766e-08	0.000136698612653893	1.8686510701499e-05
	0.136698612653893	0.4	0.4
	0	0.000508770670872015	-0.00550884663266252
	-0.00411647405120266
 80	1.66812652684099e-08	0.000136698595273325	1.86865059497004e-05
	0.136698595273325	0.4	0.4
	0	0.00136014120175361	-0.00509926829625934
	-0.00477544710007401
 81	1.66818098522507e-08	0.000136698837604349	1.86865722023801e-05
	0.136698837604349	0.4	0.4
	0	0.00175380774447978	-0.00442471293955948
	-0.00530273961947245
 82	1.66822971789871e-08	0.000136699262104275	1.86866882598532e-05
	0.136699262104275	0.4	0.4
	0	0.00150763894547619	-0.00375742664686271
	-0.00579083496111526
 83	1.66827814975742e-08	0.000136699806444927	1.86868370820805e-05
	0.136699806444927	0.4	0.4
	0	0.00138275862054163	-0.00320151895115465
	-0.00593564171801725
 84	1.66833585081736e-08	0.000136700556929339	1.86870422647915e-05
	0.136700556929339	0.4	0.4
	0	0.00102776262211567	-0.00260369078389174
	-0.0062886035587886
 85	1.66840980109636e-08	0.000136701616599683	1.86873319809666e-05
	0.136701616599683	0.4	0.4
	0	0.000878919304132741	-0.00205138152751389
	-0.00638439709152588
 86	1.66850629645552e-08	0.000136703091335629	1.86877351807174e-05
	0.136703091335629	0.4	0.4
	0	0.000564382409006652	-0.00149426117216778
	-0.00670391040481158
 87	1.66863560152723e-08	0.000136705153573154	1.86882990134597e-05
	0.136705153573154	0.4	0.4
	0	0.000492119008759933	-0.00104429586539913
	-0.00676794038821148
 88	1.66881367115924e-08	0.000136708067649923	1.86890957605758e-05
	0.136708067649923	0.4	0.4
	0	0.000243160160533126	-0.000636937318975809
	-0.00701578115917567
 89	1.66902634940067e-08	0.000136711600280381	1.86900616512227e-05
	0.136711600280381	0.4	0.4
	0	0.000240714654061174	-0.000402593966578553
	-0.00698274430916465
 90	1.66928208524138e-08	0.000136715883680008	1.86912328504055e-05
	0.136715883680008	0.4	0.4
	0	6.06565319113744e-05	-0.000214881413457088
	-0.00714107178403993
 91	1.66959660915486e-08	0.000136721177881686	1.86926804813557e-05
	0.136721177881686	0.4	0.4
	0	0.00011239978634414	-0.000129108088065416
	-0.00705526336257795
 92	1.66999726670882e-08	0.0001367279411729	1.869452989738e-05
	0.1367279411729	0.4	0.4
	0	-2.41142662707426e-05	-4.38179700599962e-05
	-0.00718243713450875
 93	1.67051438596622e-08	0.000136736683613496	1.86969206456172e-05
	0.136736683613496	0.4	0.4
	0	6.21803038497902e-05	-3.00705204963609e-05
	-0.00707718503880366
 94	1.67119705770055e-08	0.000136748232117373	1.87000789872268e-05
	0.136748232117373	0.4	0.4
	0	-4.98589504272557e-05	6.09738321813371e-06
	-0.00719179334813742
 95	1.67212982601994e-08	0.000136764012719475	1.87043951751327e-05
	0.136764012719475	0.4	0.4
	0	5.25623234944946e-05	-1.12655834068504e-05
	-0.00707859237960675
 96	1.67346488852037e-08	0.000136786593473609	1.87105721541144e-05
	0.136786593473609	0.4	0.4
	0	-5.21086325682545e-05	1.04486875312068e-05
	-0.00718851742542908
 97	1.67563573390936e-08	0.000136823292087842	1.87206132577548e-05
	0.136823292087842	0.4	0.4
	0	5.24175826245217e-05	-1.09714458501158e-05
	-0.00707206086529622
 98	1.67995298604584e-08	0.000136896207938054	1.87405717478189e-05
	0.136896207938054	0.4	0.4
	0	-5.20972497686254e-05	1.04193092515576e-05
	-0.0071762873235861
 99	1.6885874903188e-08	0.000137041768242265	1.87804462429665e-05
	0.137041768242265	0.4	0.4
	0	5.24156437429121e-05	-1.09657284833021e-05
	-0.00704771017261416
 100	1.70585649886472e-08	0.000137331806240259	1.8860025005212e-05
	0.137331806240259	0.4	0.4
	0	-5.20983660297243e-05	1.04180664586272e-05
	-0.00712772287918608
 101	1.74039451595656e-08	0.000137907579540796	1.9018500494801e-05
	0.137907579540796	0.4	0.4
	0	5.24134182723018e-05	-1.09645795795561e-05
	-0.00695115794050787
 102	1.80947055014024e-08	0.000139042130806014	1.93327141390766e-05
	0.139042130806014	0.4	0.4
	0	-5.21030303377568e-05	1.04190790992095e-05
	-0.00693688609858635
 103	1.94762261850759e-08	0.000141244655085255	1.99500525901526e-05
	0.141244655085255	0.4	0.4
	0	5.24064555401497e-05	-1.09617725686437e-05
	-0.00657785854721278
 104	2.22392675524229e-08	0.000145399166524288	2.11409176259576e-05
	0.145399166524288	0.4	0.4
	0	-5.2116610643982e-05	1.04252287951365e-05
	-0.0062360352708038
 105	2.7765350287117e-08	0.000152820958821475	2.33542454551148e-05
	0.152820958821475	0.4	0.4
	0	5.23740738869762e-05	-1.09535765813753e-05
	-0.00533179115380955
 106	3.33333333333333e-08	0.00015925974430602	2.53636661564189e-05
	0.15925974430602	0.4	0.4
	0	-5.21524453102304e-05	1.04357780293038e-05
	-0.00478622236625875
 107	3.33333723958333e-08	0.000159259812239642	2.53636877946061e-05
	0.159259812239642	0.4	0.4
	0.00156249999984461	-0.00265466344181593	2.90846015254584e-05
	-0.004478627921444
 108	3.33334505208333e-08	0.000159259947495633	2.53637308763119e-05
	0.159259947495633	0.4	0.4
	0.00468749999953382	-0.00292873256709367	8.45270224491669e-05
	-0.00433534036305679
 109	3.33336067708333e-08	0.000159260214892567	2.53638160476267e-05
	0.159260214892567	0.4	0.4
	0.0109374999989123	-0.0034403757805672	0.000185676482218567
	-0.00408659481443937
 110	3.33339192708333e-08	0.000159260742551525	2.53639841180631e-05
	0.159260742551525	0.4	0.4
	0.0234374999976691	-0.00432244938560271	0.000358519077451064
	-0.00371185007624463
 111	3.33345442708332e-08	0.000159261802022175	2.53643215833505e-05
	0.159261802022175	0.4	0.4
	0.0484374999951828	-0.00568230665241176	0.000609273322061749
	-0.00327292124562395
 112	3.33355185740772e-08	0.000159263518344762	2.53648682755523e-05
	0.159263518344762	0.4	0.4
	0.0874096297565761	-0.00722697806202624	0.000830111484329557
	-0.00305149457454561
 113	3.33366613397346e-08	0.00015926561204944	2.53655351814827e-05
	0.15926561204944	0.4	0.4
	0.133120256049143	-0.00905464432090824	0.000912346513222925
	-0.00312243384480326
 114	3.33382238398454e-08	0.000159268286889238	2.53663872086327e-05
	0.159268286889238	0.4	0.4
	0.195620260483498	-0.0123202695108909	0.000791270699954662
	-0.00344279225699425
 115	3.33397806972111e-08	0.000159270047051903	2.53669478879154e-05
	0.159270047051903	0.4	0.4
	0.25789455510925	-0.0163912539322967	0.00040506858305674
	-0.00351541258421497
 116	3.33401478179068e-08	0.000159270179878469	2.536699019852e-05
	0.159270179878469	0.4	0.4
	0.27257938293981	-0.0170058536775079	0.000307231556412429
	-0.00322532513411644
 117	3.33404477326178e-08	0.000159270067055486	2.5366954259859e-05
	0.159270067055486	0.4	0.4
	0.284575971377092	-0.0171192829545232	0.000204268806404532
	-0.00270121679750963
 118	3.33406572427541e-08	0.000159269710029534	2.53668405328917e-05
	0.159269710029534	0.4	0.4
	0.29295637683187	-0.0147942333999635	0.000117069175454083
	-0.00206390464308415
 119	3.33408925026984e-08	0.000159268832143893	2.53665608924795e-05
	0.159268832143893	0.4	0.4
	0.302366774604618	-0.0116726711745572	2.27931767220207e-05
	-0.00115053778998852
 120	3.33410202181048e-08	0.000159268244969638	2.53663738557086e-05
	0.159268244969638	0.4	0.4
	0.307475390856663	-0.0132662732202295	-1.12924642800941e-05
	-0.000741544739392704
 121	3.33411564186872e-08	0.000159267572251229	2.53661595708006e-05
	0.159267572251229	0.4	0.4
	0.312923414154056	-0.0110765926874136	-4.15701384163559e-05
	-0.000660671931214334
 122	3.33413628832642e-08	0.000159266464114758	2.53658065916173e-05
	0.159266464114758	0.4	0.4
	0.321181997234482	-0.0118719487960576	-5.95381980447261e-05
	-0.00044375104852039
 123	3.33415684651452e-08	0.000159265249722041	2.53654197690242e-05
	0.159265249722041	0.4	0.4
	0.329405272475745	-0.00853576253722455	-4.83465453316239e-05
	-0.000536165665850426
 124	3.33418188704533e-08	0.000159263616982861	2.53648996944634e-05
	0.159263616982861	0.4	0.4
	0.339421484800451	-0.00792812850245527	9.52311921172308e-06
	-0.000602064475852148
 125	3.33420964999117e-08	0.000159261837470549	2.53643328744954e-05
	0.159261837470549	0.4	0.4
	0.350526663133229	-0.00658191465325355	4.60935680738868e-05
	-0.00125913046208036
 126	3.33423504068706e-08	0.000159260477357379	2.53638996481003e-05
	0.159260477357379	0.4	0.4
	0.360682941491809	-0.00874822262617243	5.56051834891781e-05
	-0.00245396931741521
 127	3.33425840254151e-08	0.000159259507735202	2.53635908040589e-05
	0.159259507735202	0.4	0.4
	0.370027683271185	-0.00665723744800036	6.46354050582083e-05
	-0.00409198809389322
 128	3.33429586793742e-08	0.000159258561022074	2.53632892588218e-05
	0.159258561022074	0.4	0.4
	0.385013841635687	-0.00787702805674454	6.58179230560313e-05
	-0.00672802882261111
 129	3.33433333333333e-08	0.000159258300040409	2.53632061317608e-05
	0.159258300040409	0.4	0.4
	0.399999999999924	-0.00522975597085601	7.27311826131334e-05
	-0.00927287785419841
 130	3.33435384583968e-08	0.000159258318180179	2.53632119095791e-05
	0.159258318180179	0.4	0.4
	0.4	-0.0029671309266931	-1.84229256207019e-07
	-0.0107315888562894
 131	3.33437917405352e-08	0.000159258481730376	2.53632640030645e-05
	0.159258481730376	0.4	0.4
	0.4	-0.00238669786858246	-1.88646916251503e-07
	-0.0123007526222413
 132	3.33440337960864e-08	0.000159258865560354	2.53633862595709e-05
	0.159258865560354	0.4	0.4
	0.4	-0.00180291172511247	-1.91791549966196e-07
	-0.0136137588147556
 133	3.33444465361329e-08	0.000159259913372255	2.5363720007338e-05
	0.159259913372255	0.4	0.4
	0.4	-0.000992666994420361	-1.95461842627411e-07
	-0.0158184369258129
 134	3.33447321110013e-08	0.000159260883484726	2.53640290083354e-05
	0.159260883484726	0.4	0.4
	0.4	5.6408494939805e-05	-1.9713880746815e-07
	-0.0179218947386896
 135	3.33450301861937e-08	0.000159261926284846	2.53643611639599e-05
	0.159261926284846	0.4	0.4
	0.4	0.00205525977701043	-1.96393945923156e-07
	-0.0205705727268799
 136	3.33451814373964e-08	0.000159262478788187	2.53645371497578e-05
	0.159262478788187	0.4	0.4
	0.4	0.00128829437486829	-1.95111512580135e-07
	-0.0217624734946415
 137	3.33453450032736e-08	0.000159263134708183	2.53647460770769e-05
	0.159263134708183	0.4	0.4
	0.4	0.00147556566032662	-1.94190267879048e-07
	-0.0224382022624176
 138	3.33455565570868e-08	0.000159264063300205	2.53650418588916e-05
	0.159264063300205	0.4	0.4
	0.4	0.000586026178504457	-1.93773680967745e-07
	-0.0234145718206187
 139	3.33457845829525e-08	0.000159265135712346	2.53653834534718e-05
	0.159265135712346	0.4	0.4
	0.4	0.000939923953667695	-1.93941943122895e-07
	-0.0238683224769626
 140	3.33460533362985e-08	0.000159266465968144	2.53658071819819e-05
	0.159266465968144	0.4	0.4
	0.4	0.000189585271504378	-1.94565647097268e-07
	-0.0245815543974422
 141	3.33463787912991e-08	0.000159268134462386	2.53663386551285e-05
	0.159268134462386	0.4	0.4
	0.4	0.000702492368524754	-1.95520126054178e-07
	-0.0248810868769746
 142	3.33467866012738e-08	0.000159270287533126	2.53670244908845e-05
	0.159270287533126	0.4	0.4
	0.4	-2.93242934361563e-05	-1.96806332292946e-07
	-0.0254880834633731
 143	3.3347364088993e-08	0.000159273409674545	2.53680190293554e-05
	0.159273409674545	0.4	0.4
	0.4	0.000525970431498185	-1.98586758077331e-07
	-0.0257357918126121
 144	3.33481381559077e-08	0.000159277689282351	2.5369382303125e-05
	0.159277689282351	0.4	0.4
	0.4	-0.00022636428742388	-2.00863497542081e-07
	-0.026259439004833
 145	3.33493053961262e-08	0.00015928429601049	2.53714869555573e-05
	0.15928429601049	0.4	0.4
	0.4	0.000325126750095387	-2.04026300933635e-07
	-0.0263796457201099
 146	3.3350833830605e-08	0.000159293144956235	2.53743060300481e-05
	0.159293144956235	0.4	0.4
	0.4	-0.000380390889960712	-2.0760873713403e-07
	-0.0266862063548195
 147	3.33527142767508e-08	0.000159304292367356	2.53778575666639e-05
	0.159304292367356	0.4	0.4
	0.4	0.000268095002695334	-2.11030988672943e-07
	-0.0267329855941525
 148	3.33548287183838e-08	0.000159317146559065	2.53819531877226e-05
	0.159317146559065	0.4	0.4
	0.4	-0.000369856668685003	-2.13814436079769e-07
	-0.0271385083638735
 149	3.33576591798499e-08	0.000159334704491972	2.53875480555442e-05
	0.159334704491972	0.4	0.4
	0.4	0.000276105227194793	-2.16557360245312e-07
	-0.0270922819687086
 150	3.33611604066e-08	0.000159356737097542	2.53945696583752e-05
	0.159356737097542	0.4	0.4
	0.4	-0.00035471046921964	-2.1886523994417e-07
	-0.0273571586351304
 151	3.33657946821107e-08	0.000159386199793514	2.5403960684618e-05
	0.159386199793514	0.4	0.4
	0.4	0.00030277583393401	-2.2070443224674e-07
	-0.0272289157064356
 152	3.33715208219809e-08	0.000159422854966401	2.54156466856382e-05
	0.159422854966401	0.4	0.4
	0.4	-0.00033443327781925	-2.21968569524082e-07
	-0.0274358256515545
 153	3.33781588440415e-08	0.000159465503741872	2.5429246883649e-05
	0.159465503741872	0.4	0.4
	0.4	0.000318157073983167	-2.22683713143639e-07
	-0.0272580049004221
 154	3.33870529275108e-08	0.000159522753173735	2.54475087801282e-05
	0.159522753173734	0.4	0.4
	0.4	-0.000325124381312588	-2.23087242780296e-07
	-0.0274444245244791
 155	3.33979749293187e-08	0.000159593098567038	2.54699571102283e-05
	0.159593098567038	0.4	0.4
	0.4	0.00032254309610966	-2.23243828211927e-07
	-0.0272481235142593
 156	3.34131997081972e-08	0.000159691137657746	2.55012594464251e-05
	0.159691137657746	0.4	0.4
	0.4	-0.000323363907052867	-2.23288952260437e-07
	-0.0274208111171145
 157	3.34348152113376e-08	0.000159830224614214	2.554570070023e-05
	0.159830224614214	0.4	0.4
	0.4	0.000322894008212499	-2.23294124287566e-07
	-0.0272094066924539
 158	3.34698852086776e-08	0.000160055596248531	2.56177938904727e-05
	0.160055596248531	0.4	0.4
	0.4	-0.000323295535712696	-2.23292734930549e-07
	-0.027360210301326
 159	3.35396520154446e-08	0.000160502870984086	2.57611715941343e-05
	0.160502870984086	0.4	0.4
	0.4	0.000322871772022929	-2.23293778289043e-07
	-0.0270973532019175
 160	3.36791856289788e-08	0.00016139312896904	2.60477420784172e-05
	0.16139312896904	0.4	0.4
	0.4	-0.000323278912627446	-2.23291525827591e-07
	-0.0271369030137346
 161	3.39582528560471e-08	0.000163156584091232	2.66200709323194e-05
	0.163156584091232	0.4	0.4
	0.4	0.000322863690790039	-2.23294945726185e-07
	-0.0266532796672159
 162	3.45163873101836e-08	0.000166615970076716	2.77608814846051e-05
	0.166615970076716	0.4	0.4
	0.4	-0.000323262725795543	-2.23290928794811e-07
	-0.0262586819041509
 163	3.56326562184568e-08	0.000173271099053934	3.00228737673581e-05
	0.173271099053934	0.4	0.4
	0.4	0.000322874307153505	-2.23296554876897e-07
	-0.0249385494881572
 164	3.7865194035003e-08	0.000185579252475365	3.44396589493151e-05
	0.185579252475365	0.4	0.4
	0.4	-0.000323231085211475	-2.23292377801653e-07
	-0.0230027173245044
 165	4.23302696680955e-08	0.00020660896546761	4.26872646115961e-05
	0.20660896546761	0.4	0.4
	0.4	0.000322922764159106	-2.23298385012198e-07
	-0.0191098154416019
 166	4.61651348340478e-08	0.00022134520348052	4.89936991038329e-05
	0.22134520348052	0.4	0.4
	0.4	-0.00032318030477494	-2.232946137992e-07
	-0.0166749483593892
 167	5e-08	0.000233592480253473	5.45654468309694e-05
	0.233592480253473	0.4	0.4
	0.4	0.000322958886260955	-2.23299882564347e-07
	-0.0143070199332696
 168	5.00025e-08	0.000233599474559338	5.45687145143987e-05
	0.233599474559338	0.4	0.4
	0.300000000000019	0.0033849156230338	-0.000321334855726138
	-0.0151409955638276
 169	5.00051377193855e-08	0.000233609601691576	5.45734460024968e-05
	0.233609601691576	0.4	0.4
	0.194491224581243	0.00432195516196731	-0.00275176886721734
	-0.0159808004697083
 170	5.00061299151295e-08	0.000233614549337059	5.45757576619571e-05
	0.233614549337059	0.4	0.4
	0.154803394818111	0.00548761058310827	-0.00446205887566329
	-0.014498640313226
 171	5.00070857551081e-08	0.000233617086462	5.45769430869934e-05
	0.233617086462	0.4	0.4
	0.116569795675085	0.017243326069869	-0.00637270540150414
	-0.0133727190689652
 172	5.00077941845505e-08	0.000233618311762913	5.45775155909538e-05
	0.233618311762913	0.4	0.4
	0.0882326179800295	0.0114609719532327	-0.0078641440952806
	-0.0121043701234354
 173	5.00084760480421e-08	0.000233619130894116	5.4577898319722e-05
	0.233619130894116	0.4	0.4
	0.0609580783170824	0.019120507886395	-0.00907056052963779
	-0.0105881362404891
 174	5.00090518385298e-08	0.000233619583623564	5.45781098524475e-05
	0.233619583623564	0.4	0.4
	0.0379264588068666	0.0113598940726496	-0.00981131581454532
	-0.00947290249575591
 175	5.00095259192649e-08	0.000233619831856997	5.45782258368917e-05
	0.233619831856997	0.4	0.4
	0.0189632294035373	0.0178648825280301	-0.00999230538943467
	-0.0086909775118322
 176	5.001e-08	0.000233619989674782	5.45782995756452e-05
	0.233619989674782	0.4	0.4